ITEM: TIMESTEP
2018
ITEM: NUMBER OF ATOMS
1607
ITEM: BOX BOUNDS ff ff ff
0 1
0 1
0 1
ITEM: ATOMS id x y z 
0 0.7887 0.2584 -0.2628 
1 0.1042 0.4833 0.7284 
2 0.5034 0.1547 0.4458 
3 0.6125 -0.1007 -0.4547 
4 0.1002 0.4762 0.7314 
5 -0.0621 -0.1964 -0.6565 
6 0.3107 -0.6893 -0.4475 
7 -0.4195 0.8132 0.2034 
8 0.116 -0.8891 0.0472 
9 -0.1411 0.6209 -0.1693 
10 0.2097 0.5132 -0.586 
11 0.5027 -0.4892 0.5073 
12 -0.45 0.4861 0.4715 
13 -0.0219 0.1698 0.8329 
14 0.0094 0.7374 0.4371 
15 0.8726 -0.175 0.0227 
16 0.6042 0.1473 0.4352 
17 0.5881 -0.5115 -0.3789 
18 -0.7977 0.0001 -0.042 
19 -0.8164 -0.338 0.5637 
20 0.1532 -0.8887 0.0637 
21 0.5123 -0.6194 -0.2805 
22 0.738 -0.4844 -0.2403 
23 0.2561 0.7094 -0.3705 
24 -0.6246 0.661 -0.0537 
25 -0.17 0.4933 -0.6982 
26 -0.5248 0.8455 -0.112 
27 0.5595 -0.3975 -0.4754 
28 -0.0483 -0.3835 0.6752 
29 -0.0228 0.8458 0.2165 
30 0.4272 0.6622 -0.2803 
31 -0.4133 -0.6324 -0.3923 
32 -0.2078 -0.0619 -0.7253 
33 0.4371 -0.9023 -0.0079 
34 0.1846 -0.4744 -0.7056 
35 -0.4106 0.0798 0.775 
36 0.4906 -0.9542 0.1552 
37 -0.165 -0.7506 -0.1609 
38 -0.3639 0.7703 0.3161 
39 0.8525 -0.0743 0.0288 
40 0.7875 -0.2123 -0.2681 
41 -0.0787 0.9285 -0.0755 
42 0.1199 -0.8633 -0.1677 
43 -0.5388 0.6135 -0.4795 
44 -0.4181 -0.369 -0.37 
45 0.8171 0.4678 -0.1408 
46 0.1797 -0.8795 0.2732 
47 0.8599 -0.2109 0.1719 
48 0.8567 -0.2672 0.1887 
49 -0.6357 -0.3901 -0.149 
50 -0.1601 -0.7482 -0.1858 
51 0.5618 -0.4675 0.3143 
52 -0.0524 -0.4338 -0.6494 
53 0.8355 -0.1464 -0.1167 
54 0.5466 -0.4035 -0.4951 
55 -0.4945 0.7212 -0.4244 
56 0.4309 0.6007 -0.0572 
57 -0.5641 -0.497 0.152 
58 0.2007 0.1169 -0.8504 
59 -0.2276 0.2526 -0.7403 
60 0.7418 0.0604 -0.1645 
61 -0.3896 0.1282 0.581 
62 0.6376 0.3762 -0.5176 
63 -0.0604 -0.718 0.333 
64 -0.2876 0.4075 -0.706 
65 -0.4144 -0.1314 0.9116 
66 -0.2224 -0.7106 -0.4073 
67 -0.2136 0.3906 -0.7251 
68 0.2538 -0.6777 0.5351 
69 -0.6144 -0.0881 0.1358 
70 0.0061 0.9132 -0.0981 
71 0.8473 -0.0771 -0.1078 
72 -0.832 -0.0783 0.0317 
73 0.6564 0.5266 0.3761 
74 0.2971 0.4926 -0.6139 
75 0.2222 -0.9112 0.1463 
76 0.8232 -0.1585 0.2837 
77 -0.0461 -0.5754 -0.5806 
78 -0.1379 -0.6872 -0.4093 
79 -0.6644 0.5382 0.1473 
80 0.437 0.6289 -0.3427 
81 -0.3672 0.3951 -0.6879 
82 -0.1921 -0.7618 -0.1059 
83 -0.641 -0.0849 -0.323 
84 -0.0798 0.9034 0.1266 
85 0.4912 0.1158 0.7052 
86 0.7455 -0.6454 -0.0146 
87 -0.7609 -0.2744 -0.1443 
88 -0.0995 0.1305 0.7761 
89 -0.6463 0.2059 -0.5498 
90 -0.8695 -0.4956 0.2182 
91 -0.0078 0.1741 -0.8268 
92 0.3005 0.0453 0.6441 
93 0.178 -0.6132 0.5818 
94 0.6768 -0.2913 0.5197 
95 0.0071 0.333 -0.745 
96 -0.8497 -0.0495 -0.0526 
97 0.5871 0.0209 0.6106 
98 0.4426 -0.5605 -0.48 
99 0.4507 -0.6334 -0.4001 
100 0.6084 -0.4364 0.213 
101 0.5695 -0.7254 0.32 
102 0.058 -0.8556 -0.1395 
103 0.6054 -0.7902 -0.012 
104 0.573 -0.8133 0.1928 
105 0.6277 -0.6921 0.3136 
106 0.0073 0.117 -0.686 
107 -0.2424 0.8676 0.2155 
108 0.3379 -0.8157 0.4345 
109 0.588 -0.2377 -0.4781 
110 -0.0007 -0.1889 0.7535 
111 -0.4939 0.8816 -0.0344 
112 -0.4573 -0.5051 -0.6347 
113 0.2097 -0.5781 0.6142 
114 -0.6127 -0.2121 -0.5461 
115 -0.155 0.8088 0.1869 
116 0.839 -0.1679 -0.1148 
117 0.1828 0.8505 -0.1232 
118 -0.1202 -0.6482 0.3703 
119 0.4969 0.338 -0.616 
120 0.1274 -0.8441 0.3247 
121 0.5775 -0.7339 -0.1996 
122 0.0156 -0.8438 0.0769 
123 -0.3763 -0.467 -0.15 
124 0.3118 -0.0364 -0.9315 
125 -0.2486 0.5899 -0.362 
126 0.2459 0.0808 0.75 
127 0.2551 -0.8263 -0.2568 
128 0.6759 -0.5009 -0.3157 
129 -0.3374 0.5056 0.5438 
130 -0.5229 -0.2283 -0.5025 
131 0.2692 -0.9157 -0.0073 
132 0.1028 0.1743 0.7214 
133 0.2754 -0.9071 0.0054 
134 -0.7953 -0.599 0.2787 
135 0.3852 -0.9588 0.1111 
136 0.1531 0.3327 0.5073 
137 0.7087 -0.5277 0.3468 
138 0.322 0.2086 0.6994 
139 0.7173 0.2042 0.0441 
140 0.0847 -0.2219 0.7895 
141 -0.1411 0.9247 -0.1833 
142 -0.1825 0.2815 -0.7432 
143 -0.2119 0.5952 -0.0407 
144 -0.5143 -0.4021 0.3385 
145 -0.4551 0.157 -0.6991 
146 0.1246 -0.1615 -0.9382 
147 0.0682 0.0983 0.6478 
148 -0.6776 -0.3871 -0.2986 
149 0.6602 0.205 -0.7292 
150 0.1312 -0.637 0.531 
151 0.2849 0.6846 0.2487 
152 0.1183 -0.2587 0.7355 
153 0.1224 0.7451 -0.4552 
154 0.2682 -0.7477 0.4413 
155 -0.0441 -0.7807 0.2362 
156 -0.4527 0.7811 0.2264 
157 0.2047 -0.5858 -0.5472 
158 0.7879 0.1047 0.0476 
159 -0.3321 -0.297 0.3735 
160 -0.1074 -0.6695 -0.4717 
161 0.3659 0.2674 -0.3893 
162 -0.764 -0.1468 0.4203 
163 -0.6217 0.6389 -0.3908 
164 -0.6284 0.3642 0.3442 
165 0.3412 -0.7671 0.454 
166 0.8118 -0.4916 -0.058 
167 -0.0088 0.0277 -0.6638 
168 0.6365 -0.7803 0.0352 
169 -0.5419 -0.3329 -0.5298 
170 -0.6415 -0.0915 0.7208 
171 -0.4244 -0.4067 -0.1481 
172 -0.1578 0.0071 -0.8546 
173 0.4358 -0.7534 0.1594 
174 0.3948 0.6345 -0.0179 
175 -0.5727 0.6639 -0.4181 
176 -0.1011 -0.2964 -0.9011 
177 -0.6525 0.5181 0.2061 
178 -0.1614 0.9239 -0.2171 
179 -0.7638 0.4169 -0.0413 
180 0.786 0.0167 -0.2567 
181 0.2511 -0.8251 0.4141 
182 -0.0665 0.0775 -0.6956 
183 0.3583 -0.6318 -0.4604 
184 -0.2018 0.896 0.1333 
185 -0.773 0.0384 -0.194 
186 0.6135 0.2545 0.5687 
187 0.0786 -0.8568 0.0808 
188 -0.7729 0.2772 0.0094 
189 -0.3921 0.1789 0.7342 
190 0.3096 0.3509 0.5628 
191 0.7106 -0.2604 0.4835 
192 0.5682 0.1577 0.4187 
193 0.7268 -0.4935 0.0046 
194 -0.5856 0.4372 -0.4747 
195 -0.0725 0.2405 0.6388 
196 0.7443 -0.6253 -0.0429 
197 -0.1901 0.9236 -0.2212 
198 -0.1775 -0.36 0.5379 
199 -0.5375 -0.2537 -0.1761 
200 -0.5011 0.4798 -0.5805 
201 -0.3054 0.8847 0.1498 
202 0.4282 0.6558 0.1208 
203 0.3997 0.5018 0.2751 
204 -0.7886 -0.6109 -0.1094 
205 0.5972 -0.4569 -0.4282 
206 -0.7291 -0.2266 -0.3408 
207 -0.4995 0.0092 -0.6044 
208 -0.8279 0.0929 -0.0766 
209 -0.0659 0.6622 -0.6079 
210 -0.667 0.4781 -0.4421 
211 0.0645 -0.8422 -0.2127 
212 -0.7706 -0.5918 0.2904 
213 -0.0415 0.9144 0.0376 
214 0.8284 -0.4593 -0.0394 
215 0.1802 0.8254 0.2207 
216 0.8027 -0.2309 -0.2196 
217 0.2726 0.5354 0.6404 
218 -0.766 0.4234 -0.1907 
219 -0.0807 0.8358 0.3126 
220 0.8039 -0.0114 -0.1387 
221 -0.1679 0.9175 0.067 
222 -0.2703 0.8593 0.2267 
223 0.577 -0.5066 -0.3974 
224 -0.1623 -0.7626 -0.0112 
225 0.745 0.1122 0.2448 
226 0.6746 -0.7537 0.1645 
227 -0.6626 0.3202 -0.5062 
228 0.0871 -0.1967 0.7066 
229 0.0218 -0.759 -0.3575 
230 0.1427 0.0301 -0.5914 
231 0.5587 0.0092 0.6438 
232 -0.2611 0.5716 0.5824 
233 -0.0681 -0.7579 0.2783 
234 0.4672 -0.8137 0.35 
235 0.5438 -0.5208 -0.0578 
236 0.4623 -0.8632 0.0709 
237 0.2204 -0.9158 0.09 
238 0.6497 -0.3706 0.5316 
239 0.5917 -0.2375 -0.4751 
240 -0.0666 -0.3528 0.6602 
241 -0.3847 0.6749 0.2882 
242 0.5958 -0.2573 -0.484 
243 -0.3801 0.6295 -0.5354 
244 0.5319 -0.0917 0.6399 
245 0.2151 0.0749 0.7794 
246 0.1826 -0.824 -0.261 
247 0.8088 -0.0275 0.2437 
248 -0.2228 0.6699 0.4624 
249 -0.2449 -0.7003 0.2686 
250 -0.7894 -0.3414 -0.1094 
251 0.2524 0.2836 -0.5858 
252 0.5184 -0.4565 0.5535 
253 0.7155 -0.1032 0.4995 
254 -0.6312 0.6409 -0.371 
255 -0.6895 0.4651 0.1806 
256 -0.0178 -0.2892 -0.647 
257 0.1902 0.8306 -0.1956 
258 0.5379 -0.1104 0.627 
259 0.6859 0.0148 -0.2916 
260 -0.7313 0.3959 0.0835 
261 -0.3697 -0.4637 -0.3306 
262 0.6909 0.1116 -0.5017 
263 0.7077 0.5443 -0.1651 
264 -0.7413 0.515 -0.1398 
265 -0.5667 0.4381 -0.5177 
266 -0.065 0.1879 0.9772 
267 -0.2037 -0.6082 -0.5855 
268 0.6325 0.4755 0.092 
269 0.585 0.2844 0.5538 
270 -0.5431 0.4975 -0.541 
271 0.5246 0.5702 0.265 
272 -0.4844 0.7223 -0.2555 
273 -0.4702 0.2003 0.5457 
274 0.4162 0.2429 0.5483 
275 0.0121 -0.3381 -0.792 
276 -0.1398 0.7019 -0.0942 
277 0.4383 0.6332 -0.3321 
278 -0.6648 0.5479 0.1359 
279 0.2844 -0.7593 -0.1838 
280 -0.7048 -0.2175 -0.3533 
281 0.5014 0.0026 -0.4601 
282 -0.548 0.4351 -0.0422 
283 0.1446 0.2162 -0.8119 
284 -0.143 -0.7205 -0.4488 
285 -0.8197 -0.5266 0.3672 
286 -0.2707 -0.2302 -0.7245 
287 0.6253 -0.6459 -0.2532 
288 0.0448 -0.654 -0.485 
289 0.7233 0.4598 0.0302 
290 -0.7753 0.3425 -0.1308 
291 0.1911 -0.0618 0.7107 
292 0.2819 -0.749 0.4876 
293 0.8638 -0.1461 0.0132 
294 0.0754 -0.8552 0.227 
295 0.0709 0.4663 -0.7053 
296 -0.3917 0.8339 0.1881 
297 -0.4522 0.6917 -0.4762 
298 -0.1069 0.8174 -0.4453 
299 -0.3238 -0.62 -0.3898 
300 0.1391 0.6388 0.5264 
301 -0.2563 -0.6896 -0.1765 
302 0.0011 -0.8024 -0.2684 
303 0.55 -0.9302 0.1468 
304 -0.5333 0.4654 -0.4402 
305 0.5804 -0.1111 -0.6033 
306 -0.6278 -0.0986 -0.4137 
307 -0.7163 -0.2192 -0.4052 
308 -0.689 -0.2545 0.6474 
309 -0.0358 0.823 -0.421 
310 -0.6138 -0.3783 0.1977 
311 -0.2165 -0.7096 0.2493 
312 0.3867 -0.5803 -0.5018 
313 0.4404 0.6385 -0.3182 
314 0.1059 0.8476 -0.2684 
315 0.5233 0.1157 0.4808 
316 0.2326 0.5903 -0.558 
317 -0.3962 0.3999 0.0445 
318 0.4381 0.6473 -0.3011 
319 0.7671 -0.1265 0.4166 
320 -0.6946 0.1111 -0.4327 
321 0.8478 -0.3988 0.097 
322 -0.545 0.8531 -0.102 
323 -0.176 0.4778 0.5775 
324 -0.3027 0.8911 0.0742 
325 0.2493 0.4935 0.7519 
326 -0.7618 0.3247 -0.2776 
327 0.7069 -0.1925 0.5121 
328 0.6783 -0.1764 -0.3999 
329 0.7359 0.3449 0.2502 
330 -0.3901 -0.1631 0.6858 
331 0.472 -0.7558 0.1592 
332 -0.7513 0.3367 -0.3148 
333 0.4361 0.2411 0.5144 
334 0.3763 -0.3636 -0.5915 
335 0.5266 0.3802 0.6695 
336 -0.1854 -0.2575 0.7001 
337 -0.6062 0.7135 -0.122 
338 -0.4795 -0.5284 0.3154 
339 0.228 -0.6508 0.5529 
340 0.2159 0.1446 0.6657 
341 0.6454 -0.3945 0.5287 
342 0.3444 -0.579 -0.5086 
343 0.0564 -0.0065 0.6831 
344 0.3956 -0.5699 -0.5053 
345 0.6039 0.3096 -0.6488 
346 -0.2673 0.2968 -0.7293 
347 -0.2613 0.3872 0.6991 
348 -0.7028 0.4801 0.1478 
349 0.2101 0.3128 0.6849 
350 -0.6996 -0.0987 0.557 
351 0.0656 0.2496 -0.7143 
352 0.4679 -0.0261 -0.5368 
353 -0.3638 0.7524 0.3385 
354 -0.665 0.0128 -0.4438 
355 0.6305 -0.3671 -0.4372 
356 -0.4513 -0.7621 -0.2323 
357 -0.4768 -0.6838 -0.4287 
358 -0.4149 0.667 0.3459 
359 -0.041 -0.1615 -0.8464 
360 -0.7394 0.1319 -0.3454 
361 -0.5981 -0.0926 0.6271 
362 0.1302 0.8616 -0.1681 
363 0.6084 -0.5694 0.2985 
364 0.4847 -0.932 0.1933 
365 0.1268 0.8627 -0.1686 
366 0.5508 -0.857 0.0664 
367 0.8413 -0.0432 0.1181 
368 -0.327 -0.057 -0.661 
369 0.1854 0.0651 0.7454 
370 -0.291 -0.3821 0.3782 
371 0.3158 0.3665 -0.5543 
372 -0.6782 0.6319 0.0548 
373 -0.2409 0.0106 0.9141 
374 0.2053 0.671 0.4006 
375 -0.2086 0.7921 -0.3064 
376 -0.6234 0.6961 -0.3502 
377 0.5227 -0.4972 -0.4687 
378 -0.746 0.1105 -0.2496 
379 0.2195 -0.4151 -0.6406 
380 0.7315 -0.1764 0.4766 
381 -0.5245 -0.4529 0.2903 
382 0.6421 -0.435 0.3889 
383 0.347 0.5687 0.5903 
384 -0.276 -0.6367 -0.3276 
385 0.5385 -0.5878 -0.3942 
386 -0.024 0.1428 0.6492 
387 -0.0661 -0.3565 -0.6539 
388 0.5504 -0.7505 -0.1906 
389 0.7348 -0.3208 0.4388 
390 0.7278 -0.2755 0.4746 
391 0.3434 0.5418 0.2252 
392 0.8023 0.3258 -0.1684 
393 0.6978 0.1445 -0.4746 
394 0.7342 -0.5441 -0.1984 
395 0.0415 -0.0491 0.6754 
396 -0.6893 0.5968 0.108 
397 0.8308 -0.1314 0.264 
398 0.0438 -0.6071 -0.5183 
399 0.1509 0.8653 -0.1266 
400 0.0333 0.6732 0.5069 
401 -0.0246 0.5107 -0.6836 
402 -0.7294 0.4239 0.0823 
403 -0.3341 0.6426 -0.5314 
404 0.6297 0.222 -0.1146 
405 -0.7754 0.3455 -0.1364 
406 0.5383 -0.5322 -0.435 
407 0.4012 -0.6155 -0.4565 
408 -0.7471 -0.0314 0.5437 
409 0.4046 0.0893 -0.8489 
410 -0.3556 -0.2545 0.8852 
411 0.1986 0.393 -0.713 
412 0.8234 0.4346 -0.4478 
413 0.3919 -0.4287 -0.5737 
414 -0.1481 0.8575 -0.385 
415 0.1267 -0.1957 0.7861 
416 -0.5243 0.4297 -0.5915 
417 0.2819 -0.4945 0.665 
418 -0.5624 0.652 -0.4343 
419 0.6008 -0.4406 0.1671 
420 -0.5619 -0.1909 -0.3661 
421 -0.5738 -0.0206 0.7024 
422 0.7197 0.3556 0.2185 
423 -0.07 0.5678 -0.6772 
424 0.7515 -0.2257 -0.3502 
425 -0.0011 -0.536 0.5836 
426 0.4525 -0.4956 0.5552 
427 0.5156 0.3437 -0.1655 
428 0.3291 0.1377 0.8143 
429 -0.1117 0.1013 0.9289 
430 -0.3514 0.254 -0.7403 
431 0.4498 0.5607 -0.451 
432 -0.618 0.7174 -0.002 
433 0.7435 -0.0859 0.4429 
434 -0.6686 -0.0385 -0.3328 
435 -0.4678 0.7454 -0.4169 
436 0.7872 0.3651 -0.3832 
437 -0.0442 -0.7999 0.1849 
438 -0.7092 0.6746 -0.2004 
439 0.0899 -0.8401 0.2744 
440 -0.7298 -0.2303 -0.3838 
441 -0.1425 0.8656 0.2468 
442 0.4263 0.5186 0.5975 
443 -0.0586 -0.356 0.7881 
444 0.3288 -0.9105 0.0208 
445 0.6482 -0.379 0.5307 
446 0.1023 0.8731 -0.1554 
447 0.5618 -0.2061 -0.5066 
448 0.8194 -0.467 -0.031 
449 -0.7103 -0.6752 0.1904 
450 0.3148 0.0427 -0.8791 
451 0.1992 0.7853 0.2226 
452 0.4217 0.2716 -0.423 
453 0.5194 0.3965 -0.5016 
454 -0.2499 0.2719 0.781 
455 -0.5121 0.7474 0.2069 
456 -0.6143 0.6883 0.1397 
457 -0.6968 -0.2733 0.6797 
458 0.7119 -0.4387 0.4046 
459 0.0919 -0.8879 0.1654 
460 0.8294 -0.3806 0.1677 
461 0.468 0.3537 0.3342 
462 0.1387 0.8618 -0.1971 
463 -0.8065 -0.0094 -0.2058 
464 0.1792 0.3388 -0.647 
465 -0.704 0.3412 -0.4233 
466 0.3949 -0.0067 -0.5668 
467 -0.7849 0.3926 -0.1585 
468 0.1851 -0.9004 -0.0509 
469 0.112 0.8207 -0.3299 
470 0.5005 0.4303 -0.1579 
471 -0.837 0.0339 -0.0879 
472 0.6601 -0.3395 0.5013 
473 0.421 -0.6914 -0.3907 
474 0.111 0.0518 0.7124 
475 0.1451 0.4571 -0.6598 
476 -0.4745 -0.4349 0.435 
477 0.72 -0.2256 0.4923 
478 -0.6751 -0.1545 0.7203 
479 0.1006 0.8735 -0.156 
480 0.5137 -0.8273 0.3208 
481 -0.5458 -0.3949 -0.2529 
482 -0.6786 -0.0564 -0.3858 
483 -0.2058 -0.5862 0.5939 
484 0.1314 -0.1942 0.7871 
485 0.7004 -0.6237 0.2369 
486 0.0418 0.9063 -0.0416 
487 0.3562 0.0645 -0.8705 
488 0.3879 -0.5174 0.6351 
489 -0.0384 -0.6295 0.4824 
490 0.5136 0.263 0.2604 
491 -0.344 0.3093 -0.7097 
492 -0.3717 -0.4838 -0.2667 
493 0.1688 0.8086 -0.2701 
494 0.8136 -0.5105 0.0444 
495 -0.0129 0.2805 0.6795 
496 -0.4435 0.4551 0.5286 
497 0.8682 -0.1547 0.137 
498 -0.7411 -0.1118 0.5073 
499 -0.7702 0.312 -0.0465 
500 0.6555 0.1748 -0.7107 
501 0.2097 0.7078 0.4038 
502 -0.1183 0.4295 -0.7318 
503 -0.756 0.4598 -0.1585 
504 -0.6036 0.5302 -0.4742 
505 0.0134 0.8518 0.2532 
506 0.2382 -0.5077 0.6586 
507 -0.103 0.8884 -0.1963 
508 0.3436 -0.9047 0.1202 
509 0.6231 -0.5921 -0.2524 
510 -0.3322 -0.1196 0.7319 
511 -0.3343 0.3052 -0.7337 
512 -0.7693 0.4703 -0.1339 
513 -0.4384 -0.2941 -0.5625 
514 0.088 0.8751 0.1129 
515 0.0723 -0.7017 0.4416 
516 0.3125 -0.5066 0.6574 
517 0.4118 0.5545 0.025 
518 -0.5119 -0.2523 0.0929 
519 0.2063 -0.7408 0.4369 
520 0.0414 0.8284 0.2464 
521 -0.5437 0.4076 -0.573 
522 0.8672 -0.2253 -0.0234 
523 -0.687 -0.3613 0.0752 
524 -0.3803 -0.7557 -0.1658 
525 -0.2725 0.9144 -0.0647 
526 -0.8028 0.108 -0.0132 
527 -0.746 -0.1973 -0.127 
528 -0.4557 -0.7004 -0.3312 
529 0.5079 0.5893 -0.3423 
530 0.2795 -0.9052 0.0516 
531 0.3549 -0.0199 -0.5964 
532 -0.2525 0.0377 0.5824 
533 -0.2985 -0.0124 -0.7388 
534 -0.5307 -0.4198 0.2827 
535 0.2173 0.5414 0.5301 
536 0.7689 -0.6155 0.0299 
537 0.1541 -0.173 0.7966 
538 -0.4005 0.8283 -0.3767 
539 -0.1633 -0.6847 0.3425 
540 -0.7781 -0.0528 -0.3475 
541 -0.5533 0.4287 0.4414 
542 -0.029 0.4468 0.5947 
543 -0.5705 -0.1003 0.6403 
544 0.24 0.7725 0.1841 
545 0.6326 0.0056 -0.535 
546 0.4227 0.4878 0.0464 
547 -0.2451 -0.6067 -0.599 
548 -0.7776 -0.4598 0.3709 
549 0.8032 0.3209 -0.1246 
550 -0.4033 -0.5213 -0.5378 
551 0.0454 -0.5362 -0.5704 
552 0.7223 -0.128 0.4721 
553 -0.0521 0.5613 -0.6796 
554 -0.3527 -0.3736 -0.8665 
555 0.1804 -0.6583 0.5494 
556 -0.6072 0.0723 0.4455 
557 -0.2415 -0.4975 -0.5354 
558 0.5266 0.1126 0.4824 
559 -0.8942 -0.3966 0.3486 
560 0.8586 -0.1979 -0.0455 
561 0.8021 0.3674 -0.2179 
562 -0.7088 0.1356 -0.414 
563 -0.3573 0.2686 0.6695 
564 -0.1054 -0.1017 0.7252 
565 -0.7588 0.498 -0.1532 
566 0.352 0.641 0.3009 
567 -0.5809 0.7695 0.0055 
568 -0.4239 0.2941 0.5491 
569 0.5014 0.0965 0.6978 
570 0.3234 -0.9101 0.0835 
571 0.0737 0.0435 0.6619 
572 0.5126 0.3314 0.4693 
573 0.0784 -0.1863 0.7283 
574 0.1337 -0.8633 -0.1857 
575 -0.555 0.6574 0.2674 
576 -0.6483 0.6805 -0.3065 
577 -0.5149 0.5036 0.4279 
578 0.4263 0.0145 -0.5449 
579 -0.3086 -0.5834 0.1896 
580 -0.6202 0.6316 -0.3991 
581 0.1188 0.7868 0.298 
582 0.2598 0.283 -0.5851 
583 0.383 0.6579 -0.0232 
584 -0.2503 0.8216 0.1387 
585 -0.2393 -0.0703 0.6756 
586 -0.248 -0.0392 -0.7397 
587 -0.8482 -0.4512 0.378 
588 0.5658 -0.3182 -0.4913 
589 -0.4591 0.4661 -0.6018 
590 -0.718 0.4604 0.089 
591 -0.2442 0.6004 -0.6308 
592 0.2659 -0.6887 -0.4654 
593 0.7753 0.2921 -0.353 
594 0.1547 0.7807 -0.361 
595 0.4281 0.6615 -0.2807 
596 0.2752 -0.906 -0.0369 
597 -0.1576 -0.6292 0.547 
598 0.323 0.7567 -0.1439 
599 0.7752 0.0484 -0.0908 
600 -0.2338 0.7524 -0.5215 
601 0.7768 -0.3951 -0.223 
602 0.3999 0.5926 -0.4441 
603 -0.1882 0.9224 -0.2275 
604 -0.5567 0.8603 -0.0612 
605 -0.0018 0.8348 0.2908 
606 -0.1415 -0.1049 -0.6784 
607 -0.2257 0.7474 -0.5285 
608 0.1672 0.1184 0.7329 
609 -0.313 -0.7577 -0.2282 
610 0.2022 -0.3645 0.7284 
611 0.6495 -0.3474 -0.427 
612 0.0067 0.9131 -0.0353 
613 0.8166 0.4259 -0.5614 
614 -0.7483 0.2608 0.2969 
615 -0.5952 -0.0847 -0.4611 
616 0.3139 0.5876 0.4017 
617 -0.2053 -0.7055 -0.2772 
618 0.3406 -0.9555 0.0885 
619 -0.5792 0.1199 -0.5777 
620 -0.1125 -0.6311 -0.5407 
621 0.2139 0.472 0.4252 
622 0.5356 -0.1577 0.644 
623 0.6366 0.4667 0.3211 
624 0.3816 -0.7594 -0.2904 
625 -0.627 0.6768 -0.0545 
626 -0.6014 0.2545 -0.5813 
627 -0.6717 0.6908 -0.082 
628 -0.7055 0.3989 0.1599 
629 -0.8267 -0.2476 -0.1133 
630 -0.1409 0.1804 0.6279 
631 -0.2038 0.4443 -0.7103 
632 -0.7598 -0.3725 -0.3436 
633 0.4206 0.5148 0.2196 
634 0.3318 0.423 0.2723 
635 0.5122 -0.5652 0.4243 
636 -0.3412 0.8808 0.1405 
637 0.4004 -0.4729 0.647 
638 -0.2121 -0.0043 -0.7283 
639 -0.3601 -0.1475 0.6781 
640 0.0693 -0.4911 0.6419 
641 -0.3259 0.0557 -0.7506 
642 -0.2974 0.3743 -0.7158 
643 -0.1181 -0.7427 0.1912 
644 0.4443 0.4907 0.0286 
645 -0.2326 0.5009 -0.119 
646 -0.0129 -0.278 -0.6362 
647 -0.8555 -0.5493 0.2303 
648 0.6253 -0.7341 0.1793 
649 -0.7181 -0.2175 -0.3961 
650 0.0467 -0.2108 -0.8672 
651 -0.152 -0.751 0.2716 
652 -0.76 -0.0101 -0.0881 
653 0.1128 0.8846 -0.0129 
654 -0.6842 0.4983 -0.408 
655 -0.7787 0.1961 0.2208 
656 0.3413 0.1539 0.722 
657 -0.6957 0.5297 -0.3744 
658 -0.5762 0.6749 -0.3948 
659 -0.2043 0.6325 -0.6196 
660 0.77 -0.0649 0.408 
661 -0.4556 0.1016 0.6834 
662 -0.3174 -0.1437 0.5528 
663 -0.513 -0.628 0.5314 
664 0.3673 0.4375 0.3382 
665 0.0323 -0.1047 -0.8814 
666 -0.4652 0.4072 -0.6423 
667 0.3864 -0.1187 -0.7962 
668 0.6158 0.5513 -0.0589 
669 0.8127 -0.396 0.2097 
670 0.1862 -0.5825 -0.5553 
671 -0.0072 -0.6688 0.467 
672 0.5788 -0.2721 0.6147 
673 -0.3299 -0.0112 -0.6768 
674 -0.0424 -0.0695 0.745 
675 0.7459 -0.0996 -0.3745 
676 0.6373 -0.2412 -0.4471 
677 0.3162 -0.7405 -0.3856 
678 0.0492 0.8313 0.2399 
679 0.5074 -0.5281 -0.472 
680 0.7577 -0.5321 -0.1619 
681 0.74 -0.5059 0.3061 
682 -0.4245 0.0855 0.8389 
683 -0.7537 0.1768 0.3076 
684 0.1725 -0.0795 -0.9359 
685 0.3397 0.7288 -0.113 
686 0.6426 -0.0442 -0.377 
687 -0.4126 0.468 -0.6391 
688 -0.2611 0.047 0.7387 
689 -0.1575 0.4398 -0.7176 
690 0.1871 0.128 0.7423 
691 -0.3671 0.6205 -0.4892 
692 -0.5276 0.1156 0.5236 
693 -0.7018 0.3951 0.1722 
694 -0.5981 0.5644 -0.4557 
695 -0.6902 0.3259 0.2138 
696 0.0214 0.6967 -0.5614 
697 0.3342 0.5066 0.2652 
698 0.7409 0.523 0.1392 
699 0.0599 -0.7051 0.4383 
700 -0.751 -0.6748 -0.1023 
701 -0.0624 0.4322 0.7477 
702 0.1756 0.7233 0.3409 
703 -0.5005 0.0939 -0.6693 
704 0.2338 0.0668 -0.8591 
705 -0.7751 0.314 -0.1212 
706 0.4038 -0.8432 0.3555 
707 -0.5816 0.5306 0.3195 
708 -0.4621 -0.5278 0.0908 
709 -0.1338 0.9192 -0.2072 
710 0.1133 0.5047 0.7088 
711 -0.7791 0.1918 0.0055 
712 0.3781 0.7002 -0.0828 
713 -0.1882 -0.6548 -0.3448 
714 -0.2787 -0.6568 -0.4978 
715 0.4382 -0.4664 -0.5359 
716 -0.6631 0.5394 0.1457 
717 0.4251 0.6639 -0.2793 
718 0.7664 -0.0194 0.3493 
719 -0.8001 -0.5945 0.3081 
720 0.3643 -0.5231 -0.5392 
721 0.8694 -0.1206 0.0602 
722 0.4602 0.6553 -0.0156 
723 -0.2143 0.1968 -0.7412 
724 0.4441 -0.9036 0.1575 
725 0.3163 0.6738 -0.3065 
726 -0.1223 0.8195 0.3333 
727 0.1297 -0.5068 -0.583 
728 0.4387 -0.7567 0.4145 
729 -0.5142 -0.2575 -0.5244 
730 0.6776 -0.7529 0.1609 
731 0.7712 0.3401 -0.4385 
732 -0.234 0.56 -0.6607 
733 0.6846 -0.3756 0.3794 
734 -0.1898 0.8222 0.3155 
735 0.5196 -0.103 -0.5004 
736 -0.8548 -0.0521 -0.0337 
737 0.2214 0.8101 -0.21 
738 0.0824 -0.5324 -0.5661 
739 -0.8716 -0.4627 -0.1137 
740 -0.4559 -0.3282 -0.3103 
741 -0.7721 0.4667 -0.1087 
742 -0.7862 0.0887 0.0336 
743 -0.0868 0.4708 0.6263 
744 0.481 -0.9457 0.1865 
745 -0.6549 -0.0685 -0.3113 
746 -0.8491 -0.5336 0.1429 
747 -0.0267 0.3309 -0.7268 
748 0.5347 0.2597 0.196 
749 -0.2866 0.3905 0.6966 
750 0.5873 -0.5332 -0.3788 
751 -0.3302 0.0301 -0.7704 
752 -0.1575 0.8682 0.2372 
753 -0.8902 -0.4181 0.3366 
754 0.0738 0.6402 -0.5895 
755 0.4066 -0.6913 -0.3994 
756 0.8517 -0.0769 0.0179 
757 -0.8618 -0.4127 0.3049 
758 0.0531 0.8221 0.3031 
759 0.2976 -0.7876 0.398 
760 -0.0534 -0.79 0.1958 
761 -0.1462 -0.747 -0.2583 
762 0.5051 -0.0273 0.6174 
763 -0.2902 -0.6071 -0.3441 
764 0.0115 0.7159 -0.5474 
765 -0.7265 0.3925 0.1007 
766 -0.2404 0.156 -0.7327 
767 0.0826 0.2671 1.0 
768 -0.5451 -0.0133 0.5923 
769 -0.1621 0.572 0.5503 
770 -0.3691 -0.4632 -0.3317 
771 -0.7786 0.1397 -0.0059 
772 -0.0848 0.8506 0.2808 
773 -0.5343 -0.0544 0.7392 
774 0.5406 -0.8336 -0.0022 
775 -0.2199 -0.643 0.5253 
776 -0.4993 -0.0396 0.8618 
777 -0.8342 -0.0139 -0.118 
778 -0.2141 -0.7227 -0.3767 
779 0.6619 0.3411 0.4725 
780 0.5531 0.2894 -0.4539 
781 0.5514 -0.3987 -0.4932 
782 -0.4316 0.8555 0.0942 
783 -0.2853 0.2362 -0.7287 
784 -0.2563 -0.346 0.4423 
785 0.0896 0.1451 -0.7404 
786 -0.7202 0.101 -0.3208 
787 0.1827 -0.1361 0.8209 
788 -0.577 -0.3777 -0.2575 
789 -0.2376 -0.5832 -0.3965 
790 -0.0825 -0.6384 0.4378 
791 -0.6041 0.6944 0.1484 
792 -0.5815 -0.7008 -0.1037 
793 -0.5423 -0.2268 0.6658 
794 -0.5626 -0.4166 -0.2126 
795 0.8187 0.4441 -0.3379 
796 0.2326 -0.9027 0.0399 
797 -0.3555 0.6455 -0.5565 
798 -0.3676 -0.4831 -0.5863 
799 0.8064 0.301 0.0321 
800 0.8741 -0.2342 0.0281 
801 -0.1861 -0.0315 -0.6964 
802 -0.4665 -0.3627 -0.5758 
803 -0.4534 -0.6052 0.1698 
804 0.2464 0.7921 -0.223 
805 -0.2282 -0.0174 0.6748 
806 -0.6031 0.6454 0.1891 
807 -0.0214 -0.035 0.7983 
808 -0.0403 -0.5245 -0.6319 
809 -0.2142 0.4129 0.705 
810 -0.8622 -0.4585 0.1706 
811 -0.7703 -0.3112 0.537 
812 0.2704 -0.5646 -0.5493 
813 0.619 -0.658 0.2242 
814 -0.6816 0.6248 0.0413 
815 0.0416 -0.5658 0.5677 
816 0.3526 0.6341 0.2534 
817 -0.2883 -0.5962 -0.2294 
818 0.7308 -0.4947 -0.245 
819 -0.6748 0.6338 -0.3088 
820 0.0535 -0.0333 -0.8582 
821 0.8502 -0.3398 0.1259 
822 -0.0335 0.4706 0.638 
823 -0.7834 0.3941 -0.1001 
824 0.4903 0.0153 0.5976 
825 -0.31 -0.6412 -0.3991 
826 0.2729 -0.9112 -0.0055 
827 0.5945 -0.4362 0.4098 
828 0.6297 -0.3899 -0.4296 
829 -0.4355 0.8007 0.2148 
830 0.5107 -0.816 0.1469 
831 0.8759 -0.2169 0.0577 
832 0.512 -0.6126 -0.232 
833 0.2749 0.2403 0.5355 
834 -0.2591 0.6161 -0.429 
835 -0.4347 -0.3231 0.176 
836 0.2545 0.5379 -0.5324 
837 0.1249 0.7924 0.2817 
838 -0.2695 0.8944 -0.2804 
839 -0.7941 -0.6006 0.2966 
840 0.001 -0.4107 -0.64 
841 0.8148 0.4157 -0.4886 
842 0.2945 -0.72 0.4989 
843 0.744 -0.433 -0.2678 
844 0.8357 -0.2475 0.2509 
845 0.2869 -0.096 -0.9478 
846 -0.7919 -0.2686 0.0809 
847 -0.7442 -0.4329 0.5935 
848 0.8239 0.439 -0.2746 
849 0.2737 -0.4674 0.6795 
850 0.0157 0.5955 0.5202 
851 0.102 -0.596 0.5689 
852 -0.3392 -0.3651 -0.4816 
853 0.407 0.5919 0.0096 
854 -0.8226 -0.2489 -0.1279 
855 -0.3036 0.2476 -0.7266 
856 0.2999 -0.9345 0.0433 
857 0.8125 -0.027 0.2289 
858 -0.7302 0.4428 0.0521 
859 -0.1452 0.2106 0.6185 
860 0.5211 0.3435 0.3303 
861 -0.4471 0.4598 0.5049 
862 -0.2843 0.5979 0.5156 
863 -0.3766 -0.5571 0.1499 
864 0.7916 0.3633 -0.5091 
865 0.1014 0.4936 -0.6699 
866 -0.1682 0.7944 0.3611 
867 -0.1433 -0.0481 -0.6942 
868 -0.0432 0.3312 -0.7738 
869 -0.3101 -0.3369 -0.4359 
870 -0.4658 -0.1666 -0.6295 
871 -0.209 -0.3409 0.5133 
872 -0.1417 0.8828 0.2027 
873 -0.6235 0.4424 0.3148 
874 0.4909 0.3517 0.1105 
875 -0.3422 0.2439 -0.718 
876 -0.6326 -0.6548 -0.3427 
877 0.4621 0.4551 0.655 
878 -0.1573 -0.1572 -0.7268 
879 -0.6269 0.017 0.2036 
880 0.0003 0.4416 0.7358 
881 -0.4374 0.3507 -0.6724 
882 0.239 0.6335 0.3557 
883 -0.1137 0.4339 0.7278 
884 0.814 0.4222 -0.4572 
885 0.8149 0.0582 -0.0013 
886 0.362 -0.8743 0.1166 
887 -0.0688 -0.1827 -0.6899 
888 0.2885 -0.736 0.4815 
889 0.3304 -0.6336 -0.4906 
890 0.7509 0.3589 0.1848 
891 -0.0148 -0.8145 0.1285 
892 -0.4319 0.2186 0.5854 
893 -0.2424 -0.754 -0.2483 
894 0.2684 -0.6556 0.5534 
895 -0.5056 -0.0863 0.2242 
896 0.6944 -0.2572 0.5142 
897 -0.393 -0.3465 0.3213 
898 -0.7382 0.4677 -0.0618 
899 -0.162 -0.7135 -0.2761 
900 0.4384 0.6369 -0.3243 
901 -0.7582 0.3253 -0.2889 
902 0.7459 -0.0327 -0.3695 
903 0.261 -0.8015 0.4167 
904 0.3667 -0.5613 -0.5112 
905 -0.535 0.3635 -0.0187 
906 0.0222 0.3878 -0.7071 
907 -0.0002 -0.5827 0.5431 
908 -0.1501 0.8056 -0.036 
909 -0.4823 -0.501 -0.1994 
910 -0.2931 -0.6884 0.2256 
911 -0.3242 -0.7487 -0.2544 
912 0.1654 0.856 0.0628 
913 -0.5671 -0.0903 0.6866 
914 0.796 0.3708 -0.269 
915 -0.5569 0.7083 -0.3858 
916 -0.3653 0.8497 0.1775 
917 -0.3318 0.2509 0.7425 
918 0.0938 0.8586 0.2046 
919 -0.6532 0.6696 0.088 
920 -0.3988 0.8443 -0.3529 
921 -0.4591 0.7597 -0.4078 
922 0.4863 0.6173 -0.3069 
923 -0.0488 -0.7966 0.1868 
924 -0.5984 0.7166 -0.1291 
925 0.6206 -0.4919 -0.3832 
926 -0.0526 -0.215 -0.8589 
927 0.2467 -0.5761 0.6187 
928 0.4013 -0.6023 -0.48 
929 -0.81 -0.6248 0.0554 
930 -0.233 -0.1516 0.5917 
931 -0.4263 -0.3968 -0.1739 
932 0.2206 0.7014 0.3237 
933 0.1642 -0.7948 0.4054 
934 0.2676 -0.9087 0.1651 
935 -0.5907 0.7065 -0.0981 
936 0.3059 0.3499 0.3758 
937 0.7357 0.343 0.2523 
938 0.6469 -0.6667 0.2808 
939 -0.6037 0.4507 -0.5205 
940 0.2214 0.8235 -0.0306 
941 -0.2516 -0.717 -0.3897 
942 -0.0225 -0.4921 0.6112 
943 0.6011 -0.4114 -0.4474 
944 0.6754 0.0576 0.3968 
945 -0.6623 0.5292 0.1583 
946 -0.4212 0.5069 0.4849 
947 0.7883 0.2167 -0.1157 
948 -0.1144 -0.6255 -0.5452 
949 -0.7609 0.1194 0.2973 
950 0.454 -0.9214 0.0794 
951 0.2908 0.5452 0.3854 
952 0.316 0.7669 0.1984 
953 -0.1452 -0.2869 -0.673 
954 0.4068 0.6952 0.1938 
955 0.6863 0.1515 0.2242 
956 0.5194 0.1202 0.478 
957 -0.8397 -0.168 0.3239 
958 0.7181 -0.2254 -0.3882 
959 -0.2342 -0.2871 -0.8273 
960 0.1262 -0.1936 -0.5906 
961 -0.2339 0.4096 0.6249 
962 0.7451 0.0783 0.2686 
963 0.47 -0.5796 -0.4447 
964 0.5836 -0.2162 -0.4819 
965 -0.0629 -0.1461 -0.7712 
966 0.7219 -0.376 0.248 
967 -0.3131 -0.7475 -0.2678 
968 0.7029 -0.5856 0.1481 
969 -0.3471 -0.6242 0.176 
970 0.7486 0.5505 0.1015 
971 0.759 0.1018 0.1227 
972 -0.7091 -0.2003 0.1651 
973 -0.6906 0.4372 0.185 
974 -0.1936 -0.1462 -0.7248 
975 -0.1015 0.4834 0.57 
976 -0.5157 -0.4767 0.0751 
977 0.3888 0.5817 -0.4687 
978 -0.1404 -0.4242 -0.5431 
979 0.8219 -0.4674 -0.0555 
980 -0.5867 0.6307 -0.0164 
981 -0.1008 -0.7904 -0.1646 
982 0.6425 -0.4133 0.5249 
983 -0.6965 -0.2095 -0.401 
984 -0.4775 -0.4114 0.3981 
985 -0.265 0.383 0.7007 
986 0.4343 0.6514 -0.2964 
987 -0.7454 0.0199 -0.0149 
988 0.4763 -0.4994 0.6099 
989 0.0858 0.249 0.5638 
990 -0.5056 -0.2754 -0.2846 
991 0.5764 -0.7273 0.3191 
992 -0.7474 -0.0238 -0.218 
993 0.333 0.7295 -0.2552 
994 0.2333 0.8332 -0.0062 
995 -0.1055 0.1718 0.7719 
996 0.6549 -0.1396 0.5397 
997 -0.423 -0.2319 -0.6152 
998 -0.0696 -0.7573 -0.3307 
999 0.8491 0.4826 -0.2492 
1000 -0.2495 -0.3377 0.5668 
1001 0.2909 0.6188 -0.4363 
1002 0.1556 0.3512 -0.6598 
1003 0.7107 0.3322 0.3337 
1004 -0.1838 0.0442 0.8127 
1005 -0.3781 0.6036 -0.4909 
1006 -0.1969 0.6712 -0.4611 
1007 0.5353 -0.7504 0.3613 
1008 0.627 0.229 0.1641 
1009 -0.4912 0.1417 0.558 
1010 -0.6706 0.6021 0.1436 
1011 -0.6245 0.5252 0.2604 
1012 -0.1634 -0.7637 -0.1174 
1013 0.7235 -0.0571 0.4267 
1014 -0.2511 -0.2982 -0.8808 
1015 -0.0512 -0.7919 0.1958 
1016 0.0926 0.8724 -0.0799 
1017 -0.4091 -0.593 -0.4562 
1018 0.7291 -0.4691 0.3591 
1019 0.8656 -0.1194 0.0991 
1020 -0.3406 0.5876 0.4983 
1021 -0.0828 -0.7612 0.2102 
1022 0.6916 -0.7209 0.1355 
1023 0.4625 0.4921 -0.2724 
1024 0.8587 -0.3647 -0.0025 
1025 -0.8666 -0.398 0.3408 
1026 0.3577 -0.494 -0.562 
1027 0.1656 0.2861 -0.679 
1028 -0.7029 0.0105 -0.2924 
1029 -0.6954 -0.2235 -0.3483 
1030 -0.7142 -0.1955 0.4025 
1031 -0.6476 0.5462 -0.4267 
1032 -0.3878 0.5917 -0.5175 
1033 -0.7428 0.3568 0.0606 
1034 0.6399 -0.6978 0.1786 
1035 -0.0988 -0.2914 -0.5541 
1036 -0.5414 0.5418 -0.5005 
1037 0.5138 0.0981 -0.8377 
1038 0.7902 0.1983 -0.2015 
1039 -0.1646 -0.1109 0.7684 
1040 -0.3269 -0.263 0.4085 
1041 -0.1652 -0.7188 0.1787 
1042 -0.4713 0.1978 -0.6933 
1043 -0.5918 0.8821 -0.13 
1044 0.5737 0.5206 0.4078 
1045 0.2721 -0.7161 0.5173 
1046 -0.0359 -0.8051 0.1831 
1047 0.4167 0.0586 0.7618 
1048 0.4298 -0.3954 0.6727 
1049 -0.2815 -0.4011 -0.7813 
1050 0.3418 -0.82 -0.2563 
1051 -0.7008 -0.1726 -0.4943 
1052 -0.418 -0.3625 -0.379 
1053 -0.2494 0.0707 0.7138 
1054 -0.5965 0.004 -0.6018 
1055 -0.1153 0.4682 0.6244 
1056 0.1211 -0.2526 0.7126 
1057 0.5187 0.0906 -0.8359 
1058 0.3879 0.5446 0.6453 
1059 0.6369 -0.6667 0.1973 
1060 -0.729 0.3029 0.1789 
1061 0.8349 0.5215 -0.0278 
1062 0.5248 -0.6099 0.1012 
1063 -0.6463 0.4693 0.2569 
1064 0.5135 -0.7472 0.4073 
1065 -0.4563 0.8042 -0.3754 
1066 -0.304 0.6076 -0.4347 
1067 0.7101 -0.4052 -0.3297 
1068 0.5763 -0.4629 0.2497 
1069 0.4895 0.0696 0.5812 
1070 -0.1434 0.5647 -0.6673 
1071 0.4502 0.0897 0.6178 
1072 -0.6615 0.4132 -0.3854 
1073 -0.1003 0.4652 -0.7203 
1074 0.7723 -0.4984 -0.167 
1075 -0.3745 0.8421 -0.0285 
1076 0.0579 -0.4956 -0.6018 
1077 -0.7841 -0.3306 -0.0926 
1078 -0.7726 0.0306 0.0546 
1079 -0.6433 0.3691 0.2988 
1080 -0.7127 -0.7066 -0.0043 
1081 0.8036 0.4071 -0.3258 
1082 -0.2987 0.6625 0.4604 
1083 -0.4198 -0.5715 0.1157 
1084 -0.3082 0.6451 -0.5795 
1085 0.617 0.1873 -0.7682 
1086 -0.8673 -0.425 0.308 
1087 -0.6714 0.5354 0.1579 
1088 0.1037 0.5634 0.5651 
1089 0.3818 -0.5861 0.4024 
1090 -0.4735 -0.0118 0.8739 
1091 0.3675 0.5592 0.6279 
1092 -0.1151 -0.5926 0.5002 
1093 0.7828 -0.4441 0.228 
1094 0.4367 0.1138 0.6166 
1095 0.0599 -0.3374 0.7096 
1096 0.7298 -0.3185 0.4589 
1097 -0.0286 -0.4929 0.6845 
1098 -0.6731 0.7954 -0.1457 
1099 0.7853 -0.3722 0.318 