ITEM: TIMESTEP
2019
ITEM: NUMBER OF ATOMS
1814
ITEM: BOX BOUNDS ff ff ff
0 1
0 1
0 1
ITEM: ATOMS id x y z 
0 0.0521 0.4675 0.2755 
1 -0.3659 0.6414 -0.0984 
2 0.2437 0.5638 0.0252 
3 0.7049 0.0817 0.0343 
4 0.0225 -0.286 -0.2302 
5 0.0588 0.8181 -0.3779 
6 -0.3721 -0.2118 0.5503 
7 0.0907 0.6768 -0.3097 
8 -0.3468 0.2778 -0.6747 
9 0.9067 0.0538 0.0946 
10 0.3022 -0.6142 -0.0833 
11 -0.0398 0.3689 0.8062 
12 -0.2854 0.6045 -0.2756 
13 -0.1844 0.3178 0.6553 
14 -0.392 -0.1735 0.6125 
15 0.8869 -0.1141 0.1916 
16 -0.5795 -0.4531 -0.0546 
17 -0.326 0.284 -0.6744 
18 -0.3422 -0.1688 -0.0266 
19 -0.3471 0.2762 -0.6769 
20 0.4328 -0.4978 -0.2029 
21 0.0714 0.1856 -0.6625 
22 0.4194 0.5912 -0.6407 
23 0.7012 0.254 0.0553 
24 0.9032 -0.0944 0.0691 
25 0.2552 -0.8502 0.0483 
26 -0.169 -0.3328 -0.0312 
27 0.5483 0.153 -0.4819 
28 -0.3897 0.3835 0.531 
29 0.0986 -0.7055 0.68 
30 -0.2079 0.6933 -0.5851 
31 0.7339 0.1833 0.0114 
32 -0.0743 0.2791 0.3657 
33 -0.3926 0.6235 -0.0992 
34 -0.3457 0.3936 0.5035 
35 -0.0678 0.3874 -0.6183 
36 0.5353 0.0154 0.5226 
37 0.4348 0.1655 -0.6037 
38 -0.5652 -0.0149 -0.5616 
39 0.0073 0.7113 0.0771 
40 -0.5141 0.1634 -0.4617 
41 -0.6436 -0.069 0.4766 
42 0.006 -0.4971 -0.5129 
43 0.4355 -0.4969 -0.1983 
44 0.6384 -0.1139 0.3656 
45 -0.2349 0.7208 -0.5739 
46 0.893 -0.1067 0.0172 
47 -0.0389 0.488 -0.6543 
48 0.5816 0.4396 0.1274 
49 0.2527 -0.226 0.8843 
50 -0.5237 0.2957 0.3848 
51 -0.6681 -0.0947 0.2948 
52 -0.5592 0.3468 -0.229 
53 -0.6675 -0.2766 -0.0838 
54 0.0144 0.8131 -0.458 
55 0.2399 -0.4567 0.6818 
56 0.2876 0.5792 -0.5516 
57 0.1203 -0.7124 0.6572 
58 0.0842 -0.1556 0.7991 
59 -0.1209 -0.3975 -0.5646 
60 0.628 -0.2057 0.2372 
61 -0.3873 0.6184 -0.1324 
62 0.5819 -0.1612 0.3506 
63 -0.7583 -0.0179 -0.6461 
64 -0.5299 0.3475 -0.3115 
65 -0.1516 -0.2272 0.8303 
66 0.2716 -0.1409 0.1548 
67 -0.0794 0.6143 0.2758 
68 -0.7737 -0.4956 -0.3007 
69 -0.4802 -0.4292 0.2595 
70 0.0788 -0.2757 -0.0844 
71 -0.3831 0.2853 -0.6433 
72 -0.6585 -0.0688 0.481 
73 -0.0346 -0.1911 -0.994 
74 -0.1153 0.578 0.3433 
75 0.3112 -0.0538 0.6112 
76 0.1703 -0.2533 -0.6414 
77 0.4003 -0.1892 -0.6338 
78 0.3908 -0.1229 -0.5896 
79 -0.7407 -0.0804 0.1645 
80 -0.3592 0.3616 0.1817 
81 0.2594 -0.0941 0.1935 
82 -0.4618 -0.2113 0.4659 
83 -0.259 0.3853 0.5674 
84 0.3306 0.6052 -0.6508 
85 -0.3537 -0.5794 0.0798 
86 -0.3736 -0.491 -0.4313 
87 0.2562 -0.4842 0.7171 
88 -0.0465 0.3491 -0.6129 
89 0.5051 0.3865 -0.3841 
90 -0.5778 -0.0881 0.3641 
91 -0.1306 -0.7151 -0.2515 
92 -0.4762 -0.8577 -0.1943 
93 0.511 -0.0444 0.4686 
94 0.0709 0.3785 -0.6207 
95 -0.4479 -0.0994 -0.549 
96 -0.8029 0.0562 -0.4509 
97 0.1929 -0.3569 -0.1062 
98 -0.7122 -0.0934 -0.2508 
99 -0.8956 0.0928 0.2527 
100 0.7359 0.1662 0.0385 
101 0.6068 0.3266 -0.1958 
102 -0.5218 -0.4684 -0.0855 
103 0.2011 -0.9235 -0.2541 
104 0.039 -0.6551 0.7148 
105 0.9006 -0.1966 0.3519 
106 -0.2061 -0.6945 -0.3669 
107 -0.2326 -0.6673 -0.5206 
108 -0.623 -0.3114 -0.083 
109 0.4204 0.3124 -0.6003 
110 0.1495 -0.0112 0.3981 
111 0.5198 -0.4446 -0.2566 
112 -0.3702 -0.5728 0.575 
113 -0.7957 -0.2571 0.453 
114 -0.4492 -0.1702 -0.6267 
115 0.0499 0.4612 0.3581 
116 -0.5628 0.1836 0.3105 
117 -0.79 -0.3859 0.2989 
118 0.2064 0.1273 -0.5475 
119 -0.4219 -0.5294 -0.3749 
120 -0.4907 -0.5338 0.0129 
121 -0.353 -0.5244 -0.4283 
122 0.3153 -0.1683 -0.6104 
123 0.3079 -0.1587 0.1767 
124 -0.1443 0.0373 -0.4968 
125 -0.9451 0.1626 0.0749 
126 0.5355 0.4539 -0.1269 
127 -0.127 -0.0768 -0.9978 
128 0.5765 0.2036 -0.7807 
129 -0.4157 0.07 -0.0316 
130 0.3307 -0.6284 -0.0752 
131 0.0011 0.2054 0.5051 
132 0.0782 0.6187 -0.3597 
133 -0.6395 -0.0818 -0.7441 
134 0.3137 0.4016 -0.6406 
135 0.4078 0.1096 -0.2281 
136 -0.378 0.2692 -0.6701 
137 0.135 -0.4604 -0.5247 
138 0.2006 0.3968 0.5111 
139 -0.0771 -0.0646 0.6835 
140 -0.132 -0.1441 0.6666 
141 -0.0094 0.4586 0.1493 
142 0.4239 -0.5081 -0.1875 
143 -0.0972 -0.989 -0.005 
144 -0.0049 -0.376 -0.8542 
145 -0.1569 0.4018 -0.7594 
146 0.7991 -0.0757 -0.1495 
147 0.038 -0.2781 0.2232 
148 0.0225 -0.2762 -0.2593 
149 0.2998 0.1623 0.6383 
150 0.6113 0.5309 -0.5711 
151 -0.6126 -0.0733 -0.7822 
152 -0.2714 0.5134 -0.5304 
153 -0.3524 0.5105 0.2145 
154 -0.3949 0.0855 0.7557 
155 0.3781 0.6176 0.2005 
156 -0.6156 -0.3098 0.4259 
157 -0.3794 0.2928 -0.6328 
158 0.4018 0.6085 -0.1396 
159 -0.1202 -0.0844 0.6791 
160 -0.2585 -0.6489 0.4544 
161 -0.1118 -0.6744 0.7174 
162 0.1586 0.1884 -0.6654 
163 -0.6713 0.102 -0.3419 
164 0.6605 0.3008 -0.6594 
165 0.5699 -0.2264 0.3296 
166 0.2078 0.0861 -0.3776 
167 -0.0426 -0.1052 0.329 
168 -0.7165 -0.1458 -0.3782 
169 0.3753 0.5131 0.3328 
170 0.4787 0.3538 0.4432 
171 -0.6517 0.2144 -0.1813 
172 -0.6159 -0.2023 0.3364 
173 -0.5301 -0.1478 -0.502 
174 0.3787 0.1602 -0.6221 
175 -0.419 -0.4972 0.5696 
176 -0.0282 0.8215 -0.5313 
177 -0.297 0.8199 -0.4837 
178 0.0351 0.4645 0.3726 
179 0.7308 0.2461 -0.0618 
180 0.3442 0.1528 -0.6319 
181 0.6458 -0.0852 0.2874 
182 -0.6247 0.1812 0.3079 
183 -0.3941 0.6252 -0.058 
184 -0.2197 0.2795 -0.3911 
185 -0.5841 0.0347 -0.5064 
186 0.0609 0.2494 -0.682 
187 0.0197 0.8438 -0.4668 
188 -0.2617 0.2661 0.6275 
189 -0.1265 -0.504 -0.5582 
190 0.3439 -0.0717 -0.5961 
191 0.4031 0.5541 0.2377 
192 -0.0546 -0.2562 -0.6933 
193 -0.187 -0.2399 -0.4081 
194 0.313 -0.5748 -0.1182 
195 -0.5457 -0.6067 -0.2524 
196 0.2767 -0.1129 0.1717 
197 -0.4059 -0.1521 -0.7411 
198 0.4918 0.5427 0.2889 
199 0.8659 -0.2423 0.1408 
200 -0.1051 0.4986 0.2528 
201 0.1461 -0.7073 0.5835 
202 0.208 0.279 0.828 
203 0.6174 -0.227 -0.6414 
204 0.4664 -0.4907 -0.1728 
205 0.0303 0.2777 -0.6833 
206 -0.4419 -0.2605 -0.6637 
207 -0.4026 0.3687 0.5306 
208 -0.8419 0.1901 0.3056 
209 -0.0547 -0.6828 0.7124 
210 0.2061 0.7634 0.09 
211 0.7371 0.1693 0.0489 
212 -0.1013 -0.6422 0.0592 
213 -0.193 0.4311 0.7861 
214 -0.4383 -0.3654 -0.3783 
215 -0.8267 0.0949 0.0622 
216 -0.0525 -0.7188 -0.0073 
217 -0.3896 0.6213 -0.0169 
218 0.4311 0.6168 0.0046 
219 0.3879 -0.5389 -0.1141 
220 -0.1818 -0.549 -0.4903 
221 -0.0103 -0.6855 0.7088 
222 0.7361 0.179 0.0309 
223 0.4699 -0.0959 -0.5348 
224 0.2473 -0.2547 0.0949 
225 0.0736 0.0169 -0.6823 
226 -0.0097 0.264 -0.665 
227 -0.0362 -0.0135 -0.5238 
228 -0.6062 0.3524 -0.2349 
229 0.4033 -0.6827 0.4348 
230 -0.3335 0.2078 0.5652 
231 0.0028 0.5125 0.2005 
232 0.0184 0.4685 0.4091 
233 0.5335 0.2936 -0.0564 
234 0.0788 0.35 -0.492 
235 -0.3112 -0.822 0.1908 
236 -0.0271 -0.3448 0.0951 
237 0.0427 0.4453 0.3971 
238 0.739 0.168 0.0475 
239 0.946 -0.2361 0.034 
240 -0.2392 -0.8058 0.1517 
241 -0.2818 0.4087 0.543 
242 0.7483 -0.1579 -0.0966 
243 0.1448 0.3952 0.263 
244 -0.5763 -0.4584 -0.1974 
245 0.1251 0.4904 -0.6277 
246 -0.562 -0.1199 -0.3251 
247 0.389 0.6178 0.1656 
248 -0.5719 -0.3844 -0.0396 
249 -0.0018 0.5833 0.3658 
250 0.0578 0.8189 -0.3795 
251 -0.3957 0.075 -0.1079 
252 0.3691 -0.4891 0.322 
253 -0.3215 0.4038 0.5356 
254 0.2472 -0.6505 0.656 
255 0.257 0.4668 0.7319 
256 -0.6812 -0.0716 0.4871 
257 -0.0099 0.6225 0.3219 
258 -0.366 0.2726 -0.6723 
259 -0.138 -0.0252 0.4692 
260 0.8592 -0.1725 0.4167 
261 0.0307 -0.189 -0.7288 
262 0.5184 0.0762 0.4791 
263 0.004 0.54 0.4099 
264 0.9069 -0.1903 0.2748 
265 0.0274 0.0724 -0.5237 
266 0.3559 -0.1493 -0.5914 
267 -0.1409 -0.4964 -0.5139 
268 -0.195 -0.5053 -0.5108 
269 0.3511 -0.517 0.3388 
270 0.1566 -0.9332 0.2202 
271 0.5397 -0.4361 -0.2203 
272 0.0441 -0.7081 0.6722 
273 -0.1377 -0.3174 0.6935 
274 -0.0926 -0.0856 0.6846 
275 -0.8421 0.1217 0.4065 
276 0.7628 0.6006 -0.0223 
277 -0.3908 0.6214 -0.1144 
278 -0.6984 -0.2733 -0.1684 
279 0.2437 0.2485 -0.5995 
280 -0.6407 -0.6033 0.1957 
281 -0.0155 -0.523 -0.4901 
282 0.4981 -0.4577 -0.2666 
283 0.4236 0.435 -0.3771 
284 0.1051 0.5069 0.2806 
285 0.2767 0.3461 0.1507 
286 0.8041 -0.1687 -0.1371 
287 0.3485 0.1791 -0.6294 
288 -0.1751 -0.5402 -0.3979 
289 -0.5969 0.2331 0.2695 
290 -0.0381 -0.9632 0.0546 
291 -0.6068 -0.1851 0.5183 
292 0.1745 -0.1765 0.1881 
293 -0.3203 -0.7755 0.3301 
294 0.596 0.5005 -0.2464 
295 -0.0379 0.3135 0.6691 
296 -0.3557 -0.5097 -0.448 
297 -0.4174 -0.5963 -0.1013 
298 -0.0267 0.6109 0.2937 
299 0.0373 0.4522 0.3857 
300 0.0277 -0.8539 -0.2626 
301 -0.0069 -0.6556 0.7332 
302 0.1601 -0.0461 0.6829 
303 0.0417 0.4459 0.3898 
304 0.1739 -0.327 -0.0185 
305 0.5439 -0.0012 0.5132 
306 0.2746 -0.0824 0.1881 
307 -0.7352 -0.2449 -0.3052 
308 0.5904 0.4562 -0.5977 
309 -0.0204 0.3853 -0.6574 
310 -0.3337 -0.1291 0.5992 
311 0.5459 -0.4292 -0.2246 
312 0.8964 -0.2225 0.2944 
313 0.3065 -0.1166 -0.6596 
314 0.2163 -0.0793 0.3562 
315 0.4039 0.1946 0.5589 
316 -0.6251 -0.6204 -0.2037 
317 0.1357 0.0747 -0.6917 
318 -0.5052 -0.4456 -0.4603 
319 -0.171 -0.2541 0.662 
320 -0.55 0.3433 -0.3418 
321 -0.1496 -0.6832 0.0319 
322 0.8213 0.5846 0.0186 
323 -0.103 -0.6207 0.4279 
324 -0.4101 -0.6262 -0.5971 
325 0.1979 0.4309 0.64 
326 -0.5095 -0.4337 0.174 
327 0.0896 -0.1277 0.7257 
328 0.1499 0.2511 -0.6102 
329 -0.7299 0.1109 0.0575 
330 -0.2693 -0.1863 0.6203 
331 -0.6913 0.5951 0.1582 
332 0.5671 -0.0736 0.4525 
333 -0.7891 0.0438 -0.4769 
334 -0.0359 -0.2862 0.1383 
335 0.1186 -0.3903 -0.0717 
336 0.1918 -0.2955 -0.2602 
337 -0.2506 0.3527 0.6242 
338 -0.0105 -0.6837 0.0223 
339 -0.0345 -0.7139 0.6725 
340 0.2681 0.3459 0.1485 
341 -0.5206 -0.4797 -0.3243 
342 0.2814 -0.4974 0.7192 
343 0.1481 -0.496 0.8002 
344 -0.0286 0.5324 -0.4435 
345 -0.4127 -0.4558 0.3303 
346 0.8391 -0.1091 0.355 
347 -0.6303 0.1466 -0.2938 
348 0.1908 0.4938 -0.7854 
349 -0.5109 0.214 0.4015 
350 -0.6668 0.1829 -0.1488 
351 -0.3165 -0.2067 -0.012 
352 0.1299 -0.2421 -0.1644 
353 -0.1907 -0.3484 -0.3323 
354 0.3584 -0.0859 -0.5877 
355 -0.5004 -0.4322 0.3786 
356 0.4262 0.4587 -0.155 
357 0.7263 -0.1314 0.6138 
358 -0.0167 0.4392 -0.6782 
359 0.0313 0.7481 0.0135 
360 0.5318 -0.3023 -0.7618 
361 -0.6362 0.354 -0.2181 
362 0.3773 -0.5258 0.2631 
363 0.2828 -0.6056 -0.1683 
364 -0.6804 -0.6453 -0.2451 
365 -0.1129 -0.5284 -0.5346 
366 0.797 -0.1689 -0.1582 
367 -0.1502 0.3254 0.6674 
368 -0.3688 0.5459 -0.5775 
369 0.3243 -0.0786 -0.6301 
370 0.1637 -0.3383 -0.0215 
371 -0.4321 -0.5737 0.02 
372 0.3518 -0.1413 0.03 
373 -0.8356 -0.1534 0.1407 
374 -0.0176 -0.1728 0.681 
375 0.2732 0.514 0.6981 
376 0.1279 0.3971 -0.4529 
377 0.033 0.4648 0.3751 
378 0.2644 0.4204 0.499 
379 0.6246 -0.3456 -0.1521 
380 0.3949 0.0355 0.0113 
381 -0.1004 -0.7556 -0.5368 
382 -0.4578 0.5732 0.0843 
383 -0.6681 0.1441 0.1746 
384 0.3741 -0.4932 0.317 
385 -0.223 -0.6307 -0.3484 
386 0.7133 0.1985 0.0117 
387 0.0528 0.8228 -0.3874 
388 -0.4146 -0.2983 -0.6664 
389 -0.2758 -0.1242 0.7473 
390 -0.3474 -0.4655 -0.485 
391 -0.5318 0.0558 0.0771 
392 -0.7725 -0.301 -0.3576 
393 -0.5848 -0.3677 -0.0102 
394 -0.0214 -0.0093 -0.5266 
395 -0.8012 -0.411 0.0353 
396 0.8606 0.2363 -0.4097 
397 -0.5195 -0.2024 0.5344 
398 0.7045 0.1782 -0.4375 
399 0.3429 -0.1018 -0.5928 
400 -0.4842 0.1161 -0.1143 
401 -0.2057 -0.6837 0.6556 
402 0.2456 0.5709 -0.1581 
403 0.8842 0.4689 -0.0804 
404 -0.0577 0.3087 -0.6654 
405 -0.7734 0.1864 0.2625 
406 -0.0988 0.2175 0.262 
407 0.0486 0.4524 0.3755 
408 -0.0176 0.5331 -0.6014 
409 -0.6286 -0.0734 0.4729 
410 0.0286 0.4608 0.3927 
411 0.1962 -0.2493 -0.6386 
412 0.177 0.1854 -0.4824 
413 -0.6563 0.1164 -0.4153 
414 -0.7922 0.0833 0.1132 
415 -0.8843 0.3193 0.0932 
416 0.4951 0.5234 -0.1489 
417 -0.1487 -0.6821 0.591 
418 -0.2147 0.2903 -0.3487 
419 0.3184 -0.1308 -0.6138 
420 -0.0899 0.5109 0.6128 
421 0.2715 0.2612 -0.3643 
422 -0.3859 -0.4854 0.2319 
423 -0.5547 0.0521 0.4714 
424 -0.6783 -0.245 0.5372 
425 0.1865 -0.6582 -0.1129 
426 -0.7902 0.0126 -0.2563 
427 0.2788 0.688 0.1017 
428 -0.4091 -0.1365 -0.6813 
429 0.2765 -0.6018 0.2827 
430 -0.1693 -0.966 0.1107 
431 0.5404 0.4059 0.2919 
432 0.8111 -0.1497 0.2141 
433 0.3884 0.3255 0.5048 
434 -0.6479 -0.0687 0.4779 
435 -0.3465 0.6363 -0.1896 
436 -0.3614 -0.1312 -0.0419 
437 -0.258 -0.6725 0.6152 
438 0.2428 0.3295 0.8516 
439 -0.358 -0.2698 0.45 
440 -0.2871 -0.3558 -0.7117 
441 -0.1275 0.554 -0.6322 
442 -0.3245 0.6205 -0.2341 
443 0.3134 -0.4254 0.8027 
444 0.3431 0.6605 -0.1953 
445 0.4697 -0.5097 -0.3002 
446 -0.1005 0.4619 -0.6565 
447 0.2624 -0.1612 0.1422 
448 -0.1479 -0.8173 0.2099 
449 0.3793 0.4096 0.4651 
450 0.6024 0.3222 -0.1228 
451 0.4552 -0.1323 -0.2531 
452 0.3402 -0.1099 -0.5918 
453 -0.4193 0.6005 0.0311 
454 -0.053 -0.5458 -0.518 
455 -0.1793 0.2429 0.8266 
456 -0.2494 -0.8036 0.5045 
457 -0.5963 0.0179 -0.5091 
458 -0.0925 0.9476 0.1541 
459 0.0947 0.7398 0.1707 
460 0.3555 -0.11 -0.594 
461 0.7184 0.1919 0.0196 
462 -0.5441 -0.3801 -0.4176 
463 0.8661 -0.2227 -0.237 
464 0.189 -0.3164 0.0867 
465 -0.1668 0.3491 0.58 
466 -0.2289 0.3734 0.5669 
467 -0.1667 0.1359 0.7608 
468 0.5696 0.412 0.122 
469 -0.775 -0.4832 -0.2214 
470 0.3656 -0.4694 0.4961 
471 0.0659 -0.6569 -0.1052 
472 0.5739 0.42 -0.0672 
473 -0.669 0.1087 -0.3364 
474 -0.4023 -0.499 -0.3125 
475 0.0703 0.4301 0.3583 
476 0.1159 -0.3629 -0.5968 
477 -0.8847 0.128 -0.1628 
478 0.5978 -0.2482 0.3506 
479 -0.2822 -0.2661 -0.8305 
480 -0.1589 -0.1528 0.6604 
481 -0.556 0.2931 0.3849 
482 0.25 -0.6627 0.653 
483 0.3262 0.0301 0.6376 
484 -0.1961 -0.3602 -0.3149 
485 0.4902 -0.4674 -0.2626 
486 0.1373 -0.3757 -0.0743 
487 -0.3318 0.5152 -0.4799 
488 0.5338 -0.3341 -0.2647 
489 0.3863 0.5725 0.2521 
490 -0.233 0.3794 0.579 
491 -0.1326 -0.2916 -0.5996 
492 -0.4129 0.6036 0.0242 
493 0.472 -0.4781 -0.2355 
494 -0.2784 0.7072 -0.5065 
495 0.217 -0.1576 0.1769 
496 -0.2036 -0.1413 0.7071 
497 -0.3572 -0.6421 0.0397 
498 -0.4516 0.7123 0.4003 
499 -0.6528 0.1278 -0.3116 
500 0.398 0.5697 0.2636 
501 0.3451 0.3877 -0.3611 
502 -0.7488 0.0428 0.1646 
503 0.9683 0.1179 -0.0348 
504 -0.7126 -0.0947 0.3207 
505 0.6096 -0.2919 -0.1232 
506 -0.8879 0.1026 -0.1953 
507 0.4539 -0.486 -0.2244 
508 0.0292 0.6207 0.3208 
509 -0.3471 -0.0616 -0.6517 
510 0.7314 0.1702 0.0465 
511 -0.1171 -0.1323 0.6884 
512 -0.1322 -0.3104 -0.9224 
513 -0.4665 -0.2253 -0.6832 
514 0.0694 -0.1496 0.803 
515 -0.0489 -0.0851 0.7714 
516 -0.2189 -0.8087 0.1919 
517 -0.6767 0.0999 -0.1378 
518 -0.8584 0.2327 0.3748 
519 0.0354 0.4552 0.3836 
520 -0.3195 -0.1376 -0.7214 
521 -0.6656 0.3428 0.5596 
522 -0.3404 0.3738 0.5084 
523 0.6637 0.2818 0.1744 
524 0.3446 -0.4549 -0.3634 
525 0.4318 -0.4993 -0.1948 
526 0.7266 0.1679 0.0499 
527 -0.8765 0.0943 -0.201 
528 -0.0093 -0.2636 -0.8195 
529 0.4429 -0.0438 0.5649 
530 0.5684 0.4788 0.0657 
531 -0.0877 0.3754 0.6019 
532 0.3717 0.1894 -0.6297 
533 0.1767 -0.6559 0.5921 
534 -0.273 0.3965 0.5855 
535 -0.2618 -0.1035 0.7901 
536 0.1184 -0.4203 0.4885 
537 -0.3798 -0.4747 -0.4299 
538 0.385 0.2933 -0.5761 
539 -0.1299 0.243 -0.6921 
540 -0.8001 -0.3573 0.3095 
541 0.0425 0.445 0.3948 
542 0.1227 0.6391 -0.3817 
543 0.5913 0.1919 -0.7546 
544 0.1135 0.6569 0.1947 
545 0.3115 0.6706 0.1752 
546 0.5278 -0.6193 0.5045 
547 -0.6906 -0.2586 0.5351 
548 -0.7423 0.1283 0.0358 
549 -0.1218 -0.2618 0.7509 
550 -0.0933 0.4844 -0.8385 
551 -0.2693 0.5597 -0.3111 
552 0.5303 0.246 -0.4479 
553 -0.0672 -0.118 0.3284 
554 -0.1036 0.4707 -0.6543 
555 0.3699 -0.5633 0.2122 
556 -0.1633 -0.283 -0.3964 
557 -0.5946 0.3944 -0.2374 
558 -0.2239 -0.1573 -0.9596 
559 0.3983 0.5429 0.2579 
560 -0.502 -0.4587 -0.1589 
561 0.0768 -0.2456 0.8699 
562 0.1634 -0.3275 0.0212 
563 0.0935 -0.4001 0.0429 
564 0.654 0.3536 -0.4695 
565 0.1661 -0.0393 0.6663 
566 0.0173 0.5147 0.2215 
567 0.5735 -0.0965 0.414 
568 0.2929 0.5269 0.1393 
569 -0.3939 0.6221 -0.0336 
570 -0.3297 0.7496 -0.5423 
571 -0.0335 -0.0864 0.8017 
572 0.1575 -0.6902 0.6463 
573 0.7954 -0.0639 -0.4924 
574 -0.0947 0.4814 0.8304 
575 -0.7842 0.3807 -0.0265 
576 0.4 -0.1071 -0.5819 
577 0.3749 -0.5379 0.232 
578 0.0164 -0.4006 0.6372 
579 -0.0474 0.5583 -0.4928 
580 0.114 -0.6791 0.1408 
581 -0.144 -0.5884 0.7502 
582 0.6995 0.1661 -0.0722 
583 -0.3388 0.3889 -0.2797 
584 0.3828 -0.3594 -0.4984 
585 -0.3707 0.6378 -0.0794 
586 0.5432 0.4202 -0.1686 
587 -0.2768 -0.0807 -0.9621 
588 -0.4292 -0.1039 0.5201 
589 0.1876 -0.2448 -0.9604 
590 -0.427 0.5955 0.0414 
591 0.3747 -0.0193 0.8238 
592 0.7354 0.1584 -0.403 
593 0.278 0.4065 0.7516 
594 0.2687 0.2648 -0.6429 
595 -0.0471 -0.4744 -0.6378 
596 0.8718 0.0242 -0.3191 
597 -0.8358 -0.219 0.3818 
598 -0.5648 0.303 0.3584 
599 0.4469 -0.4898 -0.2079 
600 0.4249 0.4673 0.3554 
601 -0.0427 -0.3339 0.0225 
602 -0.2114 -0.7884 0.5444 
603 -0.1225 -0.7287 -0.2056 
604 0.4759 -0.4761 -0.2337 
605 0.5482 -0.1881 0.3315 
606 -0.383 0.2468 0.2206 
607 -0.191 -0.2118 -0.8498 
608 -0.0296 -0.5782 -0.5971 
609 -0.1088 -0.5741 -0.4411 
610 0.4702 -0.4796 -0.2322 
611 0.1584 0.7219 -0.6332 
612 -0.0317 0.4744 0.389 
613 -0.435 0.5793 0.0823 
614 0.6494 0.0223 0.5164 
615 -0.3296 -0.5228 0.2536 
616 0.4383 -0.432 0.4065 
617 -0.2898 0.6033 -0.2734 
618 0.6457 -0.3092 -0.238 
619 -0.6497 -0.0688 0.4785 
620 0.3341 -0.4375 0.3848 
621 0.6473 -0.1218 0.3466 
622 -0.2004 -0.1712 0.6463 
623 0.476 0.0176 0.8834 
624 -0.3329 0.2268 -0.9235 
625 -0.4903 0.5309 0.2684 
626 0.1533 -0.3819 -0.597 
627 0.5084 -0.6316 0.5294 
628 -0.6624 0.1671 -0.1369 
629 -0.8778 0.1191 -0.2157 
630 0.6138 -0.2721 -0.1138 
631 0.1414 -0.3664 -0.0836 
632 0.9046 -0.1793 0.1982 
633 0.0681 0.7424 0.1578 
634 -0.1554 -0.6008 -0.4266 
635 -0.7054 -0.2296 0.5283 
636 -0.1756 -0.086 -0.9975 
637 -0.1506 0.2803 -0.6559 
638 -0.3963 0.0441 -0.0991 
639 -0.32 -0.1324 -0.711 
640 -0.3282 -0.1913 -0.0169 
641 -0.2404 -0.3143 -0.8375 
642 0.167 -0.2921 0.7304 
643 -0.6599 -0.069 0.4815 
644 0.4233 0.4434 -0.6659 
645 0.4505 -0.243 -0.4902 
646 -0.0295 0.2778 -0.6643 
647 0.0386 0.4485 0.4022 
648 -0.0824 -0.6252 0.7493 
649 0.7666 0.0157 0.0549 
650 0.5905 -0.1692 0.339 
651 -0.3495 -0.1407 0.8056 
652 -0.3281 -0.6101 -0.0753 
653 -0.2167 -0.0222 0.5933 
654 -0.3415 -0.164 0.8356 
655 0.3739 0.4519 0.1259 
656 -0.4252 0.5969 0.0386 
657 -0.3629 0.2732 -0.6731 
658 -0.1656 0.5288 0.1185 
659 0.1943 0.0683 -0.6926 
660 0.4603 -0.0132 -0.0502 
661 -0.1574 -0.9065 0.1787 
662 -0.4827 0.3517 0.4698 
663 0.0067 -0.6645 -0.0737 
664 0.6509 0.281 0.2516 
665 0.0388 0.4385 -0.6102 
666 -0.1161 0.2737 -0.7238 
667 0.2365 -0.6025 -0.2814 
668 0.3595 0.6261 0.2066 
669 0.0232 0.5496 0.8119 
670 0.3556 -0.4184 0.3714 
671 0.311 0.3214 0.5615 
672 0.3567 -0.0921 -0.6437 
673 0.6388 0.3005 0.2149 
674 -0.0914 0.002 0.6944 
675 -0.2888 -0.2105 0.703 
676 -0.0475 0.2939 -0.4214 
677 0.5394 0.4858 -0.6152 
678 -0.3387 0.5456 -0.5671 
679 -0.4272 -0.2074 0.5087 
680 0.3605 0.7067 -0.3378 
681 0.2927 -0.6838 0.6366 
682 0.0733 -0.2325 0.0846 
683 0.1507 -0.9029 -0.1614 
684 -0.6359 -0.1203 0.4979 
685 -0.4322 0.5366 -0.1157 
686 -0.6696 0.1057 -0.3399 
687 -0.4231 0.5982 0.0359 
688 0.4434 0.543 -0.6399 
689 0.0122 0.2512 -0.6658 
690 -0.4132 -0.2532 0.4922 
691 -0.0376 0.8158 0.3599 
692 0.4676 -0.0798 0.4985 
693 -0.1224 -0.1141 0.6824 
694 -0.3179 0.2086 -0.3282 
695 0.0607 -0.234 0.884 
696 -0.2948 -0.5463 -0.3998 
697 0.5713 -0.0864 0.43 
698 -0.8449 -0.217 -0.4491 
699 0.0057 0.637 -0.513 
700 -0.5282 -0.0366 -0.801 
701 0.8086 -0.1386 0.5636 
702 0.181 -0.2637 -0.6363 
703 0.5387 -0.4769 0.1679 
704 0.1829 -0.293 0.892 
705 0.8175 0.5872 0.0076 
706 -0.2685 -0.3651 0.5202 
707 0.4926 0.2652 -0.5349 
708 -0.1136 -0.1384 0.6703 
709 0.2248 0.5472 -0.3781 
710 0.4411 -0.4937 -0.2091 
711 -0.0596 -0.2425 0.8138 
712 -0.0417 -0.4063 0.0683 
713 -0.1264 -0.2384 -0.9145 
714 -0.5698 0.3224 0.2779 
715 -0.1698 0.6353 -0.4481 
716 0.4224 -0.5132 -0.1737 
717 0.3858 0.753 0.1984 
718 0.0795 0.737 -0.2224 
719 0.3457 -0.0431 0.7189 
720 0.139 0.5 0.128 
721 -0.3616 0.2699 -0.1941 
722 0.399 0.2519 0.6595 
723 0.218 -0.2722 -0.0282 
724 0.2018 0.1622 -0.6586 
725 0.3387 0.4009 0.1309 
726 -0.4065 0.5927 0.046 
727 0.0091 0.5043 0.4416 
728 0.2422 0.5606 0.3641 
729 0.3996 -0.0908 -0.6 
730 -0.7107 0.1898 -0.0968 
731 0.4814 0.454 0.3003 
732 -0.3331 -0.5554 -0.4181 
733 0.7585 -0.1687 -0.2053 
734 0.4017 0.0806 0.5995 
735 -0.3201 0.6299 -0.2313 
736 0.4792 -0.4819 -0.194 
737 -0.3975 -0.2938 -0.6876 
738 0.5999 0.3525 0.1089 
739 0.4411 0.4881 -0.2034 
740 -0.3712 0.6051 -0.1864 
741 0.1433 -0.3561 0.0294 
742 -0.0818 -0.7857 0.5578 
743 0.39 0.4377 0.1137 
744 -0.262 0.4955 0.4118 
745 0.1174 0.9456 0.2996 
746 0.5507 -0.0772 0.4056 
747 -0.7884 0.091 0.1755 
748 -0.0995 0.3953 0.6362 
749 0.0424 -0.7 -0.0332 
750 -0.1521 0.5298 -0.6117 
751 -0.3748 0.4011 -0.2403 
752 -0.4028 -0.3517 0.8013 
753 0.3471 -0.1399 -0.6219 
754 0.2163 0.6471 0.2572 
755 0.6135 0.5203 -0.5708 
756 -0.6362 0.1417 -0.2917 
757 -0.753 0.3697 -0.3995 
758 -0.6657 -0.0582 -0.2026 
759 -0.3132 -0.0746 0.8694 
760 0.1164 -0.3286 -0.1931 
761 -0.1152 0.5989 -0.5393 
762 0.0345 -0.313 -0.1343 
763 0.1284 -0.4643 -0.5337 
764 0.2519 -0.3473 0.8589 
765 -0.3487 -0.4004 -0.459 
766 -0.0213 0.8022 0.1787 
767 0.8293 -0.1774 0.111 
768 -0.0265 0.6668 0.2511 
769 -0.367 -0.212 0.5533 
770 0.4159 -0.5996 0.6095 
771 0.9763 0.0417 0.066 
772 -0.273 0.3478 0.6142 
773 -0.3333 0.206 0.0863 
774 -0.39 -0.068 0.7351 
775 -0.331 -0.489 -0.3489 
776 0.665 -0.1643 0.2772 
777 0.8716 -0.2106 0.4343 
778 -0.3502 0.6484 -0.1469 
779 -0.1276 0.5587 -0.6311 
780 -0.7091 -0.2687 0.5278 
781 0.0684 0.4357 0.539 
782 0.1224 -0.3875 -0.0728 
783 0.071 -0.6033 -0.3199 
784 -0.7612 -0.1223 0.1188 
785 0.0164 -0.2658 0.084 
786 -0.077 -0.7201 0.0346 
787 0.0291 0.4589 0.397 
788 0.0927 -0.0885 -0.7002 
789 -0.0803 -0.6914 -0.0622 
790 0.6726 0.1879 -0.469 
791 -0.337 0.0715 0.4955 
792 0.5247 -0.2334 0.3445 
793 -0.1369 -0.3202 -0.0456 
794 0.4148 0.5317 0.2648 
795 -0.7895 -0.3365 0.3972 
796 -0.3894 -0.426 -0.4136 
797 0.6609 -0.0707 0.7397 
798 0.4649 -0.5048 -0.2581 
799 0.6283 0.5186 -0.5698 
800 0.5181 -0.3684 -0.2322 
801 -0.4448 0.0378 -0.1574 
802 0.4649 0.3475 0.6842 
803 -0.4303 0.0757 0.3359 
804 -0.0433 0.92 0.2932 
805 0.4675 0.5383 -0.1379 
806 -0.325 0.0692 0.7996 
807 -0.4056 0.6096 0.0111 
808 -0.6002 -0.3316 -0.0825 
809 -0.6485 -0.2147 0.5345 
810 -0.0789 0.5732 0.1374 
811 -0.2827 -0.2334 0.7344 
812 -0.489 -0.7304 0.1141 
813 0.3919 0.2617 0.8807 
814 0.7356 0.044 -0.1108 
815 0.754 0.3682 -0.4851 
816 -0.3822 -0.0446 0.5935 
817 0.1108 -0.2584 -0.9731 
818 -0.2223 0.0842 0.7637 
819 0.4881 0.4835 -0.202 
820 0.2859 0.0183 0.768 
821 -0.0567 -0.7223 -0.1127 
822 0.2524 -0.1936 -0.6282 
823 0.7235 0.2533 0.0634 
824 -0.6365 -0.0702 0.4745 
825 0.5525 0.4505 0.1977 
826 -0.4572 -0.1494 -0.6305 
827 -0.4551 -0.2168 0.4706 
828 0.3515 0.0413 0.561 
829 0.3947 0.6257 -0.113 
830 -0.4191 0.5983 0.0359 
831 0.6551 0.1892 -0.1368 
832 0.246 -0.5224 -0.5565 
833 -0.0068 0.4638 0.8355 
834 0.0693 0.4806 0.8023 
835 0.1499 0.2056 -0.3397 
836 0.5218 -0.273 -0.7931 
837 -0.6577 -0.2232 0.5363 
838 0.4253 0.1613 0.099 
839 -0.0638 0.3897 0.9041 
840 0.1899 -0.2742 0.049 
841 -0.1387 0.4195 0.4838 
842 -0.0697 -0.7214 -0.0061 
843 0.9202 -0.022 -0.0726 
844 0.0999 0.2228 -0.68 
845 0.2029 0.4875 0.3384 
846 -0.1553 -0.3549 0.6571 
847 -0.4286 0.5944 0.0435 
848 0.3397 -0.0376 0.284 
849 -0.4315 0.0867 -0.426 
850 -0.0399 -0.4023 0.0656 
851 -0.3806 0.2908 -0.6355 
852 -0.3483 -0.2097 0.567 
853 -0.4495 0.5728 0.096 
854 -0.2715 0.3915 0.5697 
855 0.1124 -0.9358 0.0688 
856 0.1733 -0.1244 0.685 
857 0.56 0.4853 -0.1749 
858 -0.6259 0.0695 0.2979 
859 0.8854 0.0168 -0.3028 
860 -0.615 0.1939 0.2522 
861 -0.4446 -0.0554 -0.864 
862 0.3011 0.245 0.1547 
863 0.5756 -0.152 0.362 
864 0.0707 0.7885 -0.3603 
865 -0.7896 0.1257 0.1458 
866 -0.0321 0.2765 -0.6638 
867 -0.3538 0.7384 -0.5548 
868 -0.1432 -0.3698 0.0749 
869 0.9028 -0.1934 0.1979 
870 -0.6825 0.187 0.2972 
871 0.4059 -0.221 -0.5552 
872 0.3159 0.3125 -0.2813 
873 0.5311 0.4882 -0.1315 
874 0.5794 0.1854 -0.5464 
875 0.6262 -0.0448 -0.4316 
876 -0.1418 0.4677 0.4913 
877 -0.637 -0.2225 -0.1503 
878 -0.3844 0.2804 -0.6503 
879 0.8262 -0.036 -0.1847 
880 -0.3314 -0.5536 -0.4496 
881 -0.7196 -0.07 -0.1228 
882 0.6954 0.2278 0.0017 
883 0.1473 -0.2317 -0.1698 
884 0.3916 -0.496 0.5281 
885 -0.7098 -0.265 0.5276 
886 0.4581 0.5686 0.1506 
887 0.4118 -0.2069 -0.5564 
888 -0.384 0.2809 -0.6498 
889 -0.3496 0.4113 0.5352 
890 -0.3621 0.4393 -0.081 
891 0.0721 -0.6538 0.2627 
892 0.709 0.2925 -0.4828 
893 0.7874 -0.1109 0.6104 
894 0.6233 0.2719 0.059 
895 0.0295 -0.2682 0.8394 
896 0.0786 0.5898 0.555 
897 0.1212 -0.312 -0.6228 
898 0.3793 0.5336 0.2811 
899 -0.7608 0.384 0.2292 
900 -0.1442 -0.7656 0.5808 
901 -0.1448 0.9297 0.0984 
902 -0.0879 -0.3293 -0.8747 
903 -0.1434 -0.2406 -0.6658 
904 0.2679 -0.488 -0.4041 
905 0.1127 0.299 0.5146 
906 0.2234 0.7103 0.1393 
907 0.3469 0.415 -0.6371 
908 -0.1013 -0.5813 -0.4474 
909 -0.3002 0.4318 0.2333 
910 -0.6756 0.3606 0.5696 
911 -0.5132 -0.5194 -0.0582 
912 0.2801 0.4242 0.8569 
913 -0.7762 0.019 0.1195 
914 -0.3473 0.3775 0.183 
915 0.5851 0.4354 -0.612 
916 -0.0533 -0.2373 0.8068 
917 -0.1819 -0.7812 -0.4575 
918 0.7499 -0.0753 -0.1847 
919 -0.4118 -0.0247 -0.9076 
920 -0.1509 0.4019 0.1798 
921 -0.3525 0.2436 0.8475 
922 0.4367 -0.496 -0.2018 
923 0.376 0.4751 0.4071 
924 0.6486 0.338 0.0599 
925 -0.1744 0.6673 -0.5995 
926 0.1647 0.1175 0.5238 
927 0.2878 -0.081 0.1816 
928 0.0643 -0.6325 -0.2965 
929 -0.3534 0.3496 0.8236 
930 -0.5099 -0.1766 0.4563 
931 -0.1192 -0.3276 -0.8883 
932 0.4566 -0.6333 0.6169 
933 0.3916 0.4451 0.4086 
934 0.3846 0.4922 0.7241 
935 -0.5221 -0.1457 0.4431 
936 -0.0726 -0.5729 -0.4477 
937 -0.4141 0.6764 -0.0528 
938 -0.5666 0.3976 -0.0682 
939 -0.4208 -0.1629 -0.656 
940 0.608 0.1895 -0.522 
941 0.3479 0.0215 0.6882 
942 0.8352 -0.1762 -0.0893 
943 -0.1177 -0.7432 -0.0585 
944 0.2428 -0.1991 0.1109 
945 0.0231 0.3879 -0.7336 
946 0.2991 0.7164 0.0585 
947 -0.3727 0.3095 0.5636 
948 -0.4236 0.2472 0.5545 
949 -0.8292 0.1304 0.1028 
950 0.0331 0.8064 -0.4269 
951 -0.0988 0.7077 0.1188 
952 -0.2713 -0.2638 -0.8092 
953 -0.0626 -0.2349 0.7998 
954 0.0454 -0.071 0.8013 
955 -0.1947 -0.9608 0.1576 
956 0.6435 -0.0264 -0.381 
957 0.6041 -0.3779 -0.451 
958 0.8743 0.1004 -0.3855 
959 0.849 -0.2435 -0.1657 
960 -0.2818 -0.5885 0.1386 
961 0.666 -0.1349 0.3021 
962 -0.0502 -0.0921 -0.5085 
963 -0.1727 -0.2617 0.7391 
964 0.4399 -0.1591 -0.9149 
965 0.0241 -0.7366 -0.23 
966 0.3991 -0.464 0.3374 
967 -0.4431 0.308 0.1734 
968 0.3023 -0.5355 -0.2962 
969 -0.559 -0.3775 -0.1103 
970 -0.557 -0.1824 0.2214 
971 -0.8853 -0.2874 0.039 
972 -0.1674 0.3652 0.5934 
973 -0.0219 -0.7012 -0.0481 
974 0.3199 0.591 0.6971 
975 0.2769 0.151 0.6273 
976 -0.0451 0.2926 -0.4146 
977 -0.3312 -0.8881 0.2494 
978 0.362 0.622 0.6851 
979 0.5096 -0.1955 -0.8493 
980 -0.0483 -0.035 -0.5192 
981 -0.0939 -0.4903 -0.5538 
982 -0.8612 0.2739 -0.1899 
983 -0.1028 -0.0932 0.759 
984 -0.7922 0.2338 0.4787 
985 -0.3038 0.8032 -0.3815 
986 -0.3854 -0.1697 0.5626 
987 0.4036 -0.068 0.5902 
988 -0.7978 -0.0313 -0.2775 
989 0.736 0.1766 -0.3873 
990 -0.3214 -0.8512 0.1608 
991 -0.8555 0.2808 0.1039 
992 -0.7215 0.1804 -0.077 
993 -0.4314 0.5925 0.0476 
994 -0.3723 0.606 -0.1835 
995 -0.5447 -0.168 0.4795 
996 0.9645 -0.0125 0.1183 
997 0.1721 -0.0306 0.3132 
998 -0.2251 -0.3254 -0.7985 
999 0.5868 0.3159 0.3359 
1000 0.0097 -0.1474 -0.7699 
1001 -0.6324 0.1456 -0.2909 
1002 0.4258 -0.5033 -0.178 
1003 0.5858 0.197 -0.5247 
1004 0.7776 0.3435 -0.498 
1005 -0.3676 0.2719 -0.6724 
1006 0.636 0.639 -0.3408 
1007 -0.474 -0.0878 -0.2571 
1008 0.5386 -0.6149 0.4858 
1009 0.4948 -0.4466 -0.0493 
1010 -0.219 0.2956 -0.6642 
1011 0.0845 0.5613 -0.3962 
1012 -0.0903 -0.2442 0.7784 
1013 0.0434 -0.3193 -0.1606 
1014 -0.212 0.5419 0.148 
1015 0.1025 -0.1586 0.6776 
1016 0.1321 0.3533 0.2323 
1017 -0.2004 -0.351 -0.3173 
1018 0.2381 0.0166 0.6384 
1019 -0.3681 0.377 0.5516 
1020 0.7203 0.2692 0.0559 
1021 0.8655 -0.2383 -0.0871 
1022 0.0905 0.213 -0.7323 
1023 0.5502 -0.4078 -0.2722 
1024 0.0293 0.5605 0.8039 
1025 0.7794 -0.5068 -0.0844 
1026 0.0272 0.3922 0.1392 
1027 0.3529 -0.4823 0.3872 
1028 -0.3048 0.6175 -0.2539 
1029 0.0095 0.7281 0.0277 
1030 0.3946 -0.5155 -0.1583 
1031 -0.3218 -0.2057 0.0341 
1032 -0.3941 0.6251 -0.057 
1033 -0.0218 -0.0346 -0.7429 
1034 -0.8426 -0.3043 -0.1582 
1035 -0.4151 -0.2794 -0.4794 
1036 0.3662 -0.5528 0.2331 
1037 0.591 -0.1707 0.3373 
1038 0.0949 -0.2454 0.1553 
1039 0.2807 0.3798 -0.6396 
1040 0.6827 0.0019 0.1193 
1041 -0.017 0.821 -0.5148 
1042 0.3588 -0.1349 -0.6093 
1043 0.1577 0.6717 0.2595 
1044 -0.0428 0.6463 0.2793 
1045 -0.3514 0.7357 -0.5579 
1046 -0.0917 -0.6924 -0.0804 
1047 -0.1605 0.3957 0.5539 
1048 0.235 -0.6175 0.0255 
1049 0.4457 0.5818 -0.0928 
1050 0.2043 -0.3001 -0.0289 
1051 -0.445 -0.5969 -0.0903 
1052 -0.7191 0.131 0.1614 
1053 -0.5256 0.2562 -0.2342 
1054 -0.0759 -0.7151 -0.019 
1055 0.1795 -0.422 0.1416 
1056 0.3573 0.4263 -0.5696 
1057 -0.0456 -0.7108 -0.0093 
1058 -0.2875 -0.2026 -0.8887 
1059 -0.6873 0.1382 0.1696 
1060 -0.5432 -0.168 0.4784 
1061 -0.2342 -0.2886 0.6643 
1062 -0.4956 -0.1356 -0.6001 
1063 -0.8279 -0.0161 -0.243 
1064 -0.2064 0.7079 0.0242 
1065 0.3421 0.1112 -0.4899 
1066 0.8799 0.0309 -0.3696 
1067 0.45 0.5886 0.6697 
1068 -0.1464 -0.6333 -0.3716 
1069 0.1888 0.5591 -0.6482 
1070 -0.3013 -0.3711 -0.6116 
1071 -0.3413 -0.1573 0.6785 
1072 -0.5426 0.392 0.3003 
1073 0.5263 0.5867 -0.1911 
1074 -0.8992 -0.3339 -0.1832 
1075 -0.6324 0.1601 -0.2749 
1076 0.1999 -0.2797 0.0297 
1077 -0.3568 0.5178 -0.4309 
1078 0.4227 -0.5089 -0.1678 
1079 -0.7105 -0.2538 0.5274 
1080 -0.2346 0.5456 0.2968 
1081 0.1946 0.5409 -0.4148 
1082 0.4311 -0.5013 -0.1885 
1083 -0.1293 -0.5085 -0.4547 
1084 0.6156 -0.2167 -0.2029 
1085 -0.6689 0.06 -0.3773 
1086 -0.0728 0.3949 -0.9227 
1087 0.39 0.623 0.1559 
1088 -0.183 -0.6664 -0.1953 
1089 -0.2846 0.3927 0.564 
1090 -0.4261 0.064 -0.2486 
1091 -0.4632 -0.7001 0.0159 
1092 -0.3322 0.3714 0.5536 
1093 -0.645 0.1731 -0.0247 
1094 0.3434 0.6851 0.0685 
1095 -0.1137 0.2032 0.2651 
1096 0.2766 0.723 -0.019 
1097 -0.7273 -0.0949 0.4977 
1098 0.3232 -0.5806 0.6956 
1099 0.0534 0.3219 -0.6802 