ITEM: TIMESTEP
2020
ITEM: NUMBER OF ATOMS
2118
ITEM: BOX BOUNDS ff ff ff
0 1
0 1
0 1
ITEM: ATOMS id x y z 
0 -0.6188 -0.615 -0.1314 
1 -0.7693 0.4393 0.2613 
2 0.5664 -0.6349 -0.1123 
3 0.6989 -0.4486 -0.139 
4 0.3397 -0.3775 -0.7282 
5 0.0038 0.5326 -0.8096 
6 0.5894 -0.7027 -0.0524 
7 0.2229 -0.9608 0.3606 
8 0.7516 0.4674 0.0389 
9 -0.9273 0.0714 -0.0948 
10 -0.4041 0.2865 0.6751 
11 0.2747 -0.4122 -0.6756 
12 -0.2786 0.8315 -0.1865 
13 0.1083 -0.8779 -0.0247 
14 0.5741 -0.1003 -0.5373 
15 -0.7623 -0.0404 -0.446 
16 -0.0081 0.9024 -0.0243 
17 -0.622 -0.2772 -0.4189 
18 -0.3748 -0.5295 -0.7475 
19 0.4189 0.5118 0.2606 
20 -0.4981 0.5133 0.5305 
21 0.1613 0.0268 0.7993 
22 0.6854 -0.3072 -0.4168 
23 0.7005 0.0736 -0.5086 
24 0.7986 -0.1998 0.2588 
25 0.3541 0.3579 -0.8174 
26 0.5417 0.5487 -0.2901 
27 -0.0582 0.724 -0.7682 
28 0.4482 0.4088 0.6939 
29 -0.0749 0.6206 -0.778 
30 0.2113 -0.3956 -0.7352 
31 -0.6589 -0.4807 0.1406 
32 -0.5833 -0.321 0.5074 
33 0.0291 -0.3527 -0.6386 
34 0.8809 0.1998 0.1343 
35 0.3569 0.7287 -0.1959 
36 -0.6289 0.6708 -0.0216 
37 0.4884 -0.0746 -0.6842 
38 0.105 -0.8444 -0.1733 
39 0.1241 -0.0238 0.8466 
40 0.1908 -0.9609 0.3686 
41 -0.0129 -0.5051 -0.6969 
42 0.1027 -0.1935 0.8424 
43 -0.3444 0.4461 -0.6116 
44 0.6485 -0.2289 0.5764 
45 0.276 -0.7718 -0.2367 
46 0.4291 0.5168 0.2464 
47 0.1162 0.067 0.8385 
48 0.2663 -0.767 -0.2491 
49 -0.0479 0.066 -0.8306 
50 -0.1259 0.8743 0.0724 
51 0.2507 -0.3988 -0.6974 
52 0.3584 0.7571 -0.3332 
53 -0.7177 -0.0114 0.4541 
54 -0.6011 -0.1918 0.5063 
55 -0.1789 0.6061 0.5101 
56 0.3726 0.736 0.2658 
57 -0.5183 0.0943 -0.6034 
58 -0.019 -0.1953 -0.8074 
59 -0.209 -0.2337 0.8336 
60 0.4699 -0.3047 0.7081 
61 0.8525 0.0177 0.3121 
62 -0.3213 -0.7751 -0.2163 
63 -0.043 -0.4409 0.8237 
64 0.3297 0.2359 0.7384 
65 -0.5598 0.6843 -0.0924 
66 -0.0888 0.2816 -0.7701 
67 0.699 -0.2765 -0.4356 
68 0.3548 0.7555 0.2493 
69 -0.0057 0.8647 -0.081 
70 0.6066 0.0232 0.6351 
71 0.129 0.1166 0.7455 
72 0.5695 -0.2132 -0.5815 
73 0.5218 -0.7785 0.1314 
74 0.3682 0.0242 -0.692 
75 -0.1826 -0.4813 -0.7862 
76 -0.4315 0.3873 0.648 
77 0.0211 0.3778 0.5229 
78 0.4089 0.6295 -0.4879 
79 0.7416 0.2177 -0.183 
80 -0.6009 -0.6191 -0.1355 
81 -0.4659 -0.4557 0.6464 
82 0.1709 -0.7934 0.5742 
83 0.0192 -0.9277 0.6093 
84 0.2703 -0.9233 0.3078 
85 0.1096 0.8432 0.238 
86 0.0775 -0.4167 -0.7608 
87 -0.5839 -0.025 -0.5412 
88 0.2975 -0.0074 -0.719 
89 0.1469 0.6335 -0.8067 
90 -0.6071 -0.5464 0.1303 
91 0.2975 -0.8999 0.2642 
92 0.7806 -0.2268 0.3636 
93 -0.4687 -0.6386 0.1224 
94 -0.4395 0.4017 0.6422 
95 0.3895 -0.1657 -0.7492 
96 0.0028 0.8931 0.1411 
97 -0.4941 -0.5625 -0.253 
98 -0.0846 -0.2197 0.8594 
99 -0.2509 -0.2145 -0.7158 
100 0.4506 -0.8234 0.0434 
101 0.3846 0.6859 -0.3752 
102 -0.0586 -0.0551 0.8121 
103 -0.7543 -0.0628 -0.4637 
104 0.4947 -0.7105 0.3039 
105 -0.771 -0.0153 -0.4259 
106 -0.5332 0.613 -0.2794 
107 -0.0774 -0.3106 -0.8139 
108 -0.7507 -0.0734 -0.472 
109 0.7836 -0.2414 0.2719 
110 -0.0541 -0.8867 0.1182 
111 -0.5032 -0.4712 0.5271 
112 0.7749 -0.2303 0.3047 
113 -0.2585 -0.4821 -0.7762 
114 -0.0944 -0.433 0.8252 
115 0.4747 -0.5199 0.5958 
116 -0.6252 0.3211 -0.3295 
117 -0.3888 0.483 0.6796 
118 -0.3033 0.8575 -0.0523 
119 -0.4859 0.4289 -0.514 
120 0.5829 -0.2187 -0.4734 
121 0.2168 -0.9154 0.0968 
122 -0.569 -0.0906 -0.5793 
123 -0.5577 0.6766 0.0221 
124 0.3414 -0.8657 0.3015 
125 -0.4772 0.4525 -0.5126 
126 0.786 -0.0322 -0.2825 
127 0.5153 0.0584 -0.7377 
128 0.3371 -0.8817 0.1573 
129 0.7138 -0.2871 -0.3967 
130 0.578 0.4673 -0.3631 
131 -0.0864 0.0831 -0.7526 
132 0.7093 -0.4565 -0.1252 
133 0.118 -0.5119 -0.6691 
134 0.1479 -0.4015 -0.7537 
135 0.2397 -0.7768 -0.252 
136 -0.5129 0.5448 0.4502 
137 0.3173 0.4472 0.5808 
138 -0.8407 0.2142 -0.1703 
139 0.8684 0.2192 0.1192 
140 0.7792 0.1549 0.3488 
141 0.2723 -0.3391 -0.7241 
142 -0.5636 -0.0627 -0.5561 
143 0.6849 -0.2828 -0.4495 
144 0.5888 -0.5272 -0.272 
145 0.3659 -0.6975 -0.2699 
146 0.5409 -0.156 -0.6457 
147 0.3313 0.7661 -0.3165 
148 -0.3962 0.6088 -0.5578 
149 -0.3348 -0.468 0.7452 
150 0.0308 -0.3912 0.8313 
151 0.8594 0.2356 0.152 
152 -0.6488 -0.5362 0.0544 
153 -0.4147 0.278 0.6679 
154 0.307 -0.8928 0.2506 
155 0.1116 0.4445 -0.8244 
156 -0.1785 0.871 -0.0004 
157 -0.7316 -0.1109 -0.5073 
158 -0.0657 0.5911 -0.7848 
159 0.5214 -0.3409 0.6652 
160 0.1033 0.0814 0.7646 
161 0.7101 -0.2735 -0.4217 
162 0.6522 0.3157 0.5479 
163 0.2516 -0.1207 0.8389 
164 0.8896 -0.0177 -0.1683 
165 -0.0149 0.7377 -0.7791 
166 0.1405 0.4318 -0.8258 
167 -0.3585 -0.7615 -0.1827 
168 -0.4732 -0.6444 0.2879 
169 0.424 -0.4791 0.6576 
170 0.0577 0.9175 0.0188 
171 0.5129 -0.04 0.7109 
172 -0.2852 -0.0958 0.7976 
173 0.6117 0.536 -0.367 
174 0.7115 0.3222 0.4229 
175 -0.6458 0.1988 0.3468 
176 -0.4074 0.3527 0.6678 
177 -0.0844 -0.3148 0.8504 
178 0.4996 0.4568 0.6541 
179 0.1286 0.6948 -0.52 
180 -0.4412 -0.7156 -0.137 
181 -0.3674 -0.5624 0.6909 
182 -0.3776 0.4638 0.6906 
183 -0.3843 0.4818 0.6836 
184 0.7681 -0.3912 0.0706 
185 -0.647 0.4784 0.1926 
186 -0.0785 0.1431 -0.7722 
187 0.3833 0.4965 0.2989 
188 -0.5771 0.7674 -0.1135 
189 -0.3042 0.616 0.3669 
190 0.5557 0.5232 -0.3219 
191 -0.3073 -0.7581 0.4324 
192 0.7949 -0.1838 0.2795 
193 0.2935 0.7812 -0.288 
194 -0.6595 0.4129 0.1573 
195 0.5749 -0.5197 -0.3303 
196 -0.5177 0.1229 0.6212 
197 0.3435 0.4397 0.5647 
198 -0.0418 -0.441 0.8237 
199 0.2451 0.0836 -0.743 
200 0.244 -0.8916 0.0256 
201 0.299 0.7767 -0.2946 
202 0.503 0.5654 -0.0001 
203 0.4865 0.1195 -0.7991 
204 0.0326 -0.0516 -0.7204 
205 0.5185 -0.7946 0.053 
206 -0.4221 -0.6769 0.3461 
207 -0.3732 0.4898 0.6884 
208 -0.2509 -0.6234 -0.5623 
209 -0.36 0.5025 0.6072 
210 0.5753 0.4847 -0.3349 
211 -0.4906 0.8533 -0.1765 
212 -0.6028 -0.182 0.5038 
213 0.34 0.7636 -0.3217 
214 -0.2135 0.8586 -0.1493 
215 0.1807 -0.8339 0.5486 
216 0.679 -0.2746 -0.3452 
217 0.0427 0.8686 0.1698 
218 0.5512 0.3602 0.5564 
219 0.1833 -0.8392 0.5407 
220 0.0435 -0.3875 -0.7797 
221 -0.7728 0.4397 0.2592 
222 0.7574 -0.0741 0.3924 
223 0.6008 0.5549 -0.364 
224 -0.2079 0.535 -0.7177 
225 -0.5679 -0.0612 -0.5453 
226 0.1065 -0.4946 -0.6877 
227 -0.0385 -0.4411 0.8236 
228 0.0218 0.9041 0.105 
229 0.601 -0.3088 -0.5291 
230 0.544 -0.567 0.4917 
231 -0.2581 -0.6614 -0.5236 
232 -0.082 0.8867 0.0452 
233 -0.4907 -0.3727 0.6799 
234 -0.729 -0.1145 -0.5113 
235 -0.5751 -0.255 0.5488 
236 0.4199 -0.4749 0.6628 
237 -0.256 -0.65 -0.5356 
238 -0.2525 0.7081 0.295 
239 -0.6367 -0.6013 -0.0871 
240 0.2328 0.81 -0.2347 
241 0.4573 0.2116 -0.8118 
242 -0.4732 0.3921 0.6166 
243 0.5939 -0.4887 0.4896 
244 0.5405 0.6086 -0.4047 
245 0.218 -0.9267 0.1434 
246 0.8347 0.0291 0.2198 
247 0.7238 0.1635 -0.088 
248 -0.0572 0.8272 0.2923 
249 -0.5329 -0.3322 0.6111 
250 -0.2558 0.6841 0.3223 
251 -0.6428 0.5486 -0.001 
252 0.0127 0.8574 0.052 
253 -0.6188 -0.1009 -0.5665 
254 0.061 -0.8719 0.6173 
255 0.0677 -0.4113 -0.7667 
256 0.0315 0.8569 -0.0689 
257 0.7369 0.2955 0.3973 
258 0.0326 -0.9211 0.2524 
259 0.2585 -0.9184 0.1256 
260 0.6765 0.0691 -0.5384 
261 0.5397 -0.6254 -0.1633 
262 -0.6132 -0.6167 -0.1342 
263 0.1965 -0.7816 0.4151 
264 -0.0839 -0.4567 -0.7886 
265 0.242 -0.8119 0.4939 
266 0.0057 -0.2503 0.8583 
267 -0.3785 -0.6044 0.6177 
268 -0.6116 0.6483 -0.0924 
269 0.013 -0.9097 0.6215 
270 0.5295 -0.2235 -0.6642 
271 -0.1242 0.7042 -0.4085 
272 -0.0361 -0.4528 -0.7658 
273 -0.3832 0.8915 -0.4698 
274 0.6196 -0.6546 -0.0647 
275 -0.924 -0.0747 0.1316 
276 0.621 -0.4815 0.4607 
277 -0.3793 0.4366 0.5132 
278 -0.5255 -0.6427 -0.0505 
279 0.2028 -0.8665 -0.0485 
280 0.1941 -0.9194 0.1094 
281 0.1945 0.5311 -0.8043 
282 -0.059 0.1993 -0.7697 
283 -0.5315 -0.387 -0.4139 
284 -0.4325 0.644 -0.5056 
285 0.4406 0.2337 -0.8107 
286 -0.1738 0.8314 0.141 
287 -0.1608 -0.7815 0.1941 
288 0.7689 -0.4253 0.0062 
289 0.2147 0.4896 -0.8323 
290 0.675 0.0813 -0.5304 
291 -0.3496 0.9416 -0.2729 
292 0.8425 -0.016 -0.2623 
293 0.0007 -0.1069 -0.7025 
294 0.5044 -0.3594 0.6616 
295 0.7338 0.0285 -0.421 
296 0.0436 0.9132 0.0633 
297 -0.0722 0.8317 0.2323 
298 0.8236 0.264 0.3905 
299 -0.1896 0.5728 -0.7289 
300 -0.0866 0.6372 -0.7715 
301 0.2128 -0.5822 -0.5757 
302 -0.8453 0.2169 -0.1551 
303 0.306 0.0504 0.8035 
304 0.6627 0.2818 0.5213 
305 -0.6584 -0.4988 0.0764 
306 0.3773 -0.7372 0.4259 
307 0.614 -0.2261 -0.7409 
308 0.4916 -0.0192 0.7228 
309 0.3307 0.4045 -0.8183 
310 0.1138 0.3735 0.5112 
311 -0.4329 -0.6224 0.4641 
312 0.5289 0.4282 0.6329 
313 0.2428 -0.8317 0.4846 
314 -0.3528 -0.3947 0.7524 
315 -0.2645 -0.7299 -0.4195 
316 0.9146 0.1277 -0.0923 
317 -0.2292 -0.4845 -0.7819 
318 0.0478 0.2842 0.5825 
319 -0.8431 0.0095 -0.1425 
320 0.3237 -0.4951 0.7038 
321 -0.519 0.1645 -0.5591 
322 -0.2653 -0.7454 -0.3872 
323 0.1522 -0.9499 0.309 
324 -0.5749 -0.0507 -0.549 
325 0.1317 -0.8014 0.5341 
326 -0.6606 -0.4985 0.206 
327 0.122 -0.5184 -0.6619 
328 -0.7127 -0.3031 0.3213 
329 0.5894 -0.7205 0.0435 
330 0.0403 0.1888 0.6595 
331 -0.4962 0.7912 -0.0462 
332 -0.826 0.1603 -0.2432 
333 -0.3785 -0.1931 0.7544 
334 0.3581 -0.4273 0.724 
335 -0.1244 -0.3057 0.8467 
336 0.7921 -0.1468 0.3106 
337 0.3365 -0.4917 0.6995 
338 0.3135 0.8011 -0.2623 
339 0.4653 -0.4663 0.6372 
340 -0.3628 0.4949 0.6932 
341 0.2115 -0.6394 0.5667 
342 0.1943 0.5544 -0.813 
343 0.596 -0.2617 -0.5215 
344 -0.2599 -0.7179 0.6261 
345 0.5415 -0.328 -0.5765 
346 -0.2691 -0.582 0.751 
347 -0.5959 -0.0916 -0.571 
348 0.622 -0.6135 -0.0294 
349 0.4359 -0.4673 0.657 
350 -0.103 0.1082 -0.7535 
351 -0.4977 0.7326 -0.31 
352 -0.0267 0.6938 -0.783 
353 0.5555 0.6133 -0.3668 
354 -0.7903 0.0513 -0.3677 
355 0.029 0.3436 0.5436 
356 0.2114 -0.9209 0.1175 
357 -0.3666 -0.758 -0.1751 
358 0.0071 0.0977 -0.7945 
359 0.4008 0.5401 -0.5527 
360 0.4749 0.6152 -0.3374 
361 0.0333 0.3318 0.5508 
362 0.8591 -0.0611 -0.2328 
363 0.4661 -0.8495 0.119 
364 0.1092 -0.4709 0.7872 
365 0.5735 -0.2423 0.647 
366 0.0123 0.9 -0.0302 
367 -0.5333 -0.2862 0.5655 
368 -0.6033 0.07 -0.5011 
369 -0.2613 -0.7061 -0.4621 
370 0.3897 -0.2859 -0.7208 
371 -0.1774 0.6229 0.3964 
372 -0.0449 -0.7482 0.4329 
373 0.6083 0.5427 -0.3652 
374 0.8052 0.2844 0.2612 
375 0.2971 0.5843 -0.7533 
376 0.7461 0.3044 0.3876 
377 0.3432 -0.381 0.7509 
378 0.4686 0.1859 -0.8099 
379 -0.8011 0.0348 -0.0993 
380 -0.7076 -0.2282 0.3132 
381 -0.0738 0.136 -0.7623 
382 0.0583 -0.419 -0.7595 
383 -0.8516 0.2752 -0.0563 
384 -0.5774 -0.6238 -0.1303 
385 -0.9276 -0.0467 0.1 
386 -0.6554 0.3784 0.1361 
387 0.043 -0.4097 -0.7738 
388 0.7558 -0.0277 0.4066 
389 -0.6176 0.6308 -0.0154 
390 -0.3948 0.616 -0.5582 
391 -0.8162 0.3947 0.1579 
392 -0.801 0.0777 -0.3369 
393 -0.1176 0.8597 0.2141 
394 0.2218 -0.3771 -0.731 
395 -0.6188 0.4083 -0.2808 
396 0.0028 0.6612 -0.5742 
397 -0.5785 0.6479 -0.0366 
398 -0.2244 0.4756 0.7667 
399 -0.0695 0.5252 -0.7054 
400 0.5725 -0.3919 -0.5274 
401 -0.1009 0.7005 -0.7562 
402 -0.5666 0.291 -0.4681 
403 0.3803 0.8114 0.0644 
404 -0.6612 -0.4736 0.1459 
405 0.296 -0.2367 0.8101 
406 -0.3792 0.7135 -0.5489 
407 0.6925 0.1703 -0.1426 
408 -0.0499 0.6466 -0.783 
409 -0.3545 0.9442 -0.3256 
410 -0.0094 -0.1975 0.8642 
411 -0.6369 -0.6005 -0.0767 
412 -0.4244 0.3233 0.657 
413 0.576 -0.2348 -0.6749 
414 0.3541 -0.9229 0.2344 
415 -0.3833 0.4877 0.6816 
416 -0.5576 -0.2679 -0.5072 
417 0.2193 0.8519 0.1575 
418 -0.3822 0.5477 0.5733 
419 -0.6887 -0.3343 0.3137 
420 0.607 0.5392 -0.3728 
421 -0.5978 -0.2603 0.498 
422 0.1823 0.7961 0.0738 
423 -0.9458 0.0427 0.0028 
424 -0.2599 -0.8148 0.3275 
425 0.0494 0.8469 0.0809 
426 0.6427 -0.2864 -0.4206 
427 -0.8495 0.2427 -0.117 
428 0.7681 0.2933 0.3358 
429 0.2474 0.182 0.7782 
430 -0.3406 0.494 0.7079 
431 -0.4436 -0.7139 -0.1344 
432 0.1083 -0.4938 -0.687 
433 0.2177 -0.6838 0.427 
434 -0.3715 0.7432 0.1439 
435 0.7992 -0.1975 0.2596 
436 0.2478 -0.8046 -0.2044 
437 -0.5751 -0.0835 -0.5747 
438 -0.5251 -0.3627 0.655 
439 -0.3945 0.2132 0.6885 
440 -0.4332 0.3764 0.6469 
441 0.0961 0.9038 -0.1619 
442 -0.1462 0.8633 0.0916 
443 -0.0581 0.5519 -0.7912 
444 0.5495 -0.2024 -0.633 
445 0.4159 0.6918 -0.4254 
446 -0.2091 0.7586 -0.6849 
447 0.5396 -0.0794 -0.595 
448 -0.5356 -0.2314 0.5678 
449 0.1939 -0.4384 -0.6941 
450 0.1021 0.9007 -0.1667 
451 -0.0416 -0.3886 -0.7976 
452 0.8255 0.2705 0.2252 
453 -0.5825 0.5054 0.4669 
454 -0.1421 -0.5395 -0.6991 
455 -0.3354 0.5014 0.7069 
456 0.6847 -0.299 -0.4287 
457 0.8873 0.1886 0.1436 
458 -0.6935 -0.1301 -0.5449 
459 0.0881 -0.0295 0.855 
460 -0.4003 0.5392 0.5605 
461 -0.0347 0.6678 -0.7848 
462 0.5828 0.0674 -0.6943 
463 -0.6371 -0.599 -0.0692 
464 -0.7387 -0.1 -0.4957 
465 0.6543 -0.6112 0.0776 
466 0.0069 0.6444 -0.7993 
467 -0.5668 -0.1443 0.5232 
468 -0.6433 -0.5654 0.009 
469 -0.2754 -0.7887 -0.2421 
470 0.5404 -0.7724 0.0656 
471 0.0418 -0.156 0.844 
472 -0.4374 0.8792 -0.1776 
473 -0.8146 0.0033 -0.1214 
474 0.7557 -0.3582 -0.0948 
475 -0.1513 -0.8688 0.2839 
476 0.7976 -0.2151 0.2481 
477 0.1906 -0.7998 -0.2479 
478 -0.4155 -0.4917 0.7064 
479 0.8818 0.209 0.196 
480 0.4041 0.7353 -0.3607 
481 0.2178 -0.7842 0.504 
482 0.7142 0.1715 0.0618 
483 -0.0902 0.2055 -0.7629 
484 -0.5642 -0.6287 -0.1241 
485 -0.046 -0.4494 0.8215 
486 0.4677 0.1733 -0.8015 
487 -0.3178 -0.6714 0.6278 
488 -0.5138 0.6737 -0.256 
489 0.6504 -0.4658 0.4278 
490 0.2132 -0.4572 0.7694 
491 -0.3182 -0.7399 0.459 
492 0.5086 -0.6059 0.4901 
493 0.0361 0.5774 0.5834 
494 -0.7223 -0.1235 -0.5212 
495 0.1759 -0.8475 0.5452 
496 -0.0203 0.1398 -0.8256 
497 -0.509 -0.6559 -0.0434 
498 -0.5153 -0.6627 -0.1123 
499 -0.0292 -0.9072 0.2885 
500 0.5288 -0.353 -0.5941 
501 -0.4079 0.3159 0.67 
502 0.064 0.4973 -0.8198 
503 -0.434 0.8944 -0.2411 
504 -0.707 -0.133 -0.5371 
505 0.3609 0.4569 0.5745 
506 -0.6425 0.4789 -0.0306 
507 0.6049 -0.3889 -0.4609 
508 -0.187 -0.8085 0.2643 
509 -0.4019 0.5262 -0.5654 
510 -0.6255 -0.0502 -0.3838 
511 -0.4271 0.5507 0.5236 
512 0.0234 -0.5488 -0.6461 
513 -0.6739 -0.1168 -0.55 
514 0.2333 0.5393 0.7308 
515 0.4988 -0.1771 -0.6411 
516 0.6011 0.3414 0.59 
517 0.609 0.5415 -0.3652 
518 0.7955 -0.2152 0.2542 
519 -0.5677 -0.5211 0.3069 
520 -0.5078 0.5701 0.4017 
521 0.7572 -0.2782 0.3261 
522 -0.4605 -0.7029 -0.1281 
523 0.3318 0.7657 -0.3171 
524 0.0177 -0.8974 0.0946 
525 0.2439 0.591 0.3095 
526 -0.5515 -0.6357 -0.1187 
527 0.094 0.9167 -0.0175 
528 -0.5779 0.7136 -0.1546 
529 -0.5041 -0.1677 0.6513 
530 -0.6657 -0.4532 0.1753 
531 0.5203 -0.7831 0.0667 
532 0.2904 -0.4298 -0.6626 
533 -0.6294 -0.0355 0.4491 
534 0.0983 0.572 0.6677 
535 -0.7662 -0.2783 0.2517 
536 -0.7253 0.4477 0.1823 
537 0.569 0.5001 -0.328 
538 -0.638 0.1971 0.3982 
539 0.0004 -0.3532 -0.8 
540 0.4501 0.1368 -0.7795 
541 0.2541 -0.3092 0.8081 
542 -0.6294 -0.6096 -0.1178 
543 -0.6994 -0.1299 -0.541 
544 0.1628 0.8115 0.0227 
545 -0.0516 -0.8491 0.5738 
546 -0.6241 -0.1088 -0.3628 
547 -0.0815 0.4989 -0.7194 
548 -0.04 0.6688 -0.783 
549 0.846 0.2352 0.0644 
550 -0.298 0.9531 -0.2994 
551 0.0523 0.781 0.1927 
552 0.7928 -0.3821 -0.0048 
553 -0.7879 0.0327 -0.3815 
554 0.0256 0.9044 0.1026 
555 -0.4166 0.2758 0.6667 
556 -0.5806 0.6916 -0.0275 
557 -0.2504 -0.51 0.78 
558 0.224 -0.4253 -0.6899 
559 -0.7851 0.0262 -0.389 
560 -0.7642 0.4453 0.2747 
561 0.7724 0.2893 0.377 
562 0.514 0.6353 -0.411 
563 0.7151 -0.5019 0.203 
564 -0.0514 0.7151 -0.772 
565 0.347 -0.9196 0.2955 
566 -0.7772 0.002 -0.411 
567 -0.6269 -0.6112 -0.1224 
568 0.5282 0.6369 -0.3794 
569 0.2875 -0.742 -0.2672 
570 -0.4371 0.5214 -0.5293 
571 -0.6679 0.491 0.3909 
572 -0.4298 0.4202 0.6507 
573 0.7031 -0.5324 0.0378 
574 0.7349 -0.4255 0.2905 
575 -0.3589 0.9445 -0.3307 
576 0.5614 0.516 -0.3126 
577 0.0261 0.3519 0.5385 
578 -0.1713 -0.4794 -0.7873 
579 -0.6908 0.4963 0.2537 
580 -0.3017 -0.686 0.4298 
581 0.2845 -0.9215 0.1547 
582 -0.2672 0.4245 0.7605 
583 0.1268 -0.5282 -0.6515 
584 -0.5797 0.7112 -0.1515 
585 0.5929 -0.6956 -0.0474 
586 -0.2874 -0.6556 0.5615 
587 -0.839 0.2195 -0.1726 
588 0.0232 0.4762 -0.8131 
589 -0.2311 -0.5136 -0.7831 
590 -0.4281 0.328 0.6537 
591 0.2212 -0.3742 0.7997 
592 0.249 -0.2482 -0.7682 
593 -0.7217 -0.1247 -0.5222 
594 -0.7821 0.0155 -0.3985 
595 0.064 0.1547 -0.8325 
596 -0.6353 -0.1598 0.4498 
597 0.2207 -0.968 0.4053 
598 0.7403 0.5083 -0.1257 
599 -0.4404 -0.7323 0.0584 
600 0.4485 0.2386 -0.7987 
601 0.0798 0.8497 -0.1037 
602 -0.5021 0.8357 -0.2531 
603 -0.0636 0.0942 -0.7579 
604 0.8651 0.2274 0.139 
605 -0.2521 -0.1171 -0.7537 
606 0.4819 0.1571 -0.8022 
607 -0.5582 0.4534 -0.3965 
608 0.5207 -0.7933 0.0736 
609 -0.5754 -0.057 -0.5294 
610 -0.4656 -0.4391 0.6885 
611 -0.026 0.2379 -0.7847 
612 -0.3969 0.8859 -0.1493 
613 0.5013 -0.6503 0.4194 
614 0.519 0.5869 -0.182 
615 -0.4564 0.4686 0.632 
616 0.2449 0.1473 0.8039 
617 0.0285 -0.4151 -0.7714 
618 -0.3765 0.6125 0.3632 
619 -0.6925 0.4839 0.3658 
620 0.042 -0.4734 -0.731 
621 0.1684 -0.8094 -0.2471 
622 -0.7985 -0.202 0.2326 
623 0.6538 -0.3551 0.4954 
624 0.0752 -0.2872 0.8425 
625 0.5054 -0.5955 0.4996 
626 0.8512 -0.0847 0.0365 
627 0.7976 -0.2068 0.2552 
628 -0.067 0.12 -0.7615 
629 -0.6587 -0.2753 0.4257 
630 0.0161 0.6706 -0.7974 
631 0.4355 -0.1836 -0.4863 
632 -0.434 0.5268 -0.531 
633 -0.2648 -0.5346 0.7673 
634 0.3396 -0.6187 0.2202 
635 -0.8204 0.1428 -0.2652 
636 -0.6377 -0.595 -0.0538 
637 0.8439 0.2423 0.0824 
638 -0.8296 0.1904 -0.2151 
639 -0.5473 -0.6384 -0.1166 
640 -0.6303 -0.3872 0.3311 
641 -0.0413 0.9245 -0.2947 
642 -0.3672 0.4864 0.6945 
643 0.0086 0.8626 -0.0792 
644 0.1174 0.8903 -0.0815 
645 0.2695 -0.2029 -0.6238 
646 0.6673 -0.3201 0.5145 
647 0.0687 0.3419 0.5405 
648 -0.2603 -0.7204 -0.4382 
649 -0.3889 0.932 -0.3286 
650 0.8881 -0.0884 0.1099 
651 -0.2206 0.1191 0.7948 
652 -0.0986 -0.4716 0.8174 
653 0.6117 -0.3055 -0.5201 
654 0.0565 -0.3221 0.8412 
655 0.5367 0.5561 -0.2866 
656 0.4855 0.1495 -0.8054 
657 -0.5684 -0.08 -0.5436 
658 0.1033 0.8891 -0.1371 
659 0.5199 0.6433 -0.3834 
660 -0.5576 -0.2242 0.5644 
661 -0.0415 0.7472 0.3816 
662 0.2427 -0.8816 -0.0007 
663 0.1875 -0.3714 -0.7459 
664 0.8858 0.1914 0.1413 
665 0.4515 0.6629 -0.2245 
666 -0.3591 0.5013 0.6892 
667 0.374 0.1799 -0.735 
668 -0.4453 0.5147 0.5759 
669 0.2345 -0.8907 0.0217 
670 0.2392 0.5611 -0.7709 
671 0.361 0.3424 -0.7804 
672 0.0386 -0.0245 -0.8054 
673 0.1683 -0.4586 -0.689 
674 0.0501 -0.2602 0.8467 
675 -0.4075 0.6206 -0.5416 
676 -0.1809 -0.599 -0.605 
677 0.098 0.1416 -0.8316 
678 0.4731 0.4308 0.6819 
679 -0.6276 -0.6108 -0.121 
680 -0.4055 0.5139 0.617 
681 0.3014 -0.4078 -0.6645 
682 -0.1155 -0.2012 0.8375 
683 0.2914 -0.0063 0.8195 
684 0.8606 -0.0625 -0.1255 
685 -0.0743 -0.8216 -0.2035 
686 -0.5013 -0.3816 0.5879 
687 -0.5053 0.0873 -0.6303 
688 0.6098 0.5361 -0.371 
689 0.2637 -0.9383 0.2079 
690 0.6626 -0.6125 0.0622 
691 -0.0144 0.1364 -0.836 
692 -0.3796 0.482 0.6869 
693 -0.4248 -0.553 0.61 
694 -0.3416 0.5075 0.6922 
695 -0.0763 0.8295 0.2326 
696 0.4549 0.6976 -0.3888 
697 0.6926 -0.3243 -0.3841 
698 0.6008 -0.6032 -0.0905 
699 0.5381 0.6295 -0.3735 
700 0.4806 0.6759 -0.3938 
701 -0.3488 -0.7374 -0.2767 
702 0.5812 -0.3165 -0.5812 
703 -0.4251 0.4742 0.5956 
704 0.544 -0.7305 -0.0806 
705 -0.2548 0.4733 0.4897 
706 0.0835 0.3532 0.5305 
707 -0.6039 -0.3585 0.4521 
708 0.4398 -0.0338 -0.7231 
709 -0.2909 0.5293 -0.6678 
710 -0.3424 0.9456 -0.3176 
711 0.455 0.4247 0.4074 
712 -0.269 -0.4781 -0.7657 
713 -0.1566 -0.4766 -0.788 
714 0.5469 -0.447 -0.2782 
715 -0.831 0.0445 -0.1778 
716 0.0178 -0.4037 -0.7772 
717 -0.7793 0.0074 -0.406 
718 0.0005 -0.1206 0.8531 
719 -0.4631 -0.4539 0.6594 
720 -0.7056 0.0722 0.0037 
721 -0.0756 -0.074 -0.7207 
722 -0.5923 -0.6203 -0.1341 
723 0.0421 0.8545 -0.0685 
724 -0.1987 0.9094 -0.0968 
725 -0.0618 0.0919 -0.7577 
726 0.1247 -0.9421 0.2653 
727 -0.4514 0.5548 0.4919 
728 -0.1645 -0.7955 0.6677 
729 0.447 -0.4677 0.6493 
730 0.0969 -0.9818 0.5821 
731 0.3643 0.731 -0.2407 
732 0.2027 -0.8507 0.5184 
733 0.1007 -0.5018 -0.6856 
734 0.2928 -0.9377 0.3177 
735 -0.0737 -0.8029 0.697 
736 -0.0355 0.7273 -0.7748 
737 -0.5909 0.0653 -0.5121 
738 0.5259 0.5778 -0.2213 
739 0.4245 0.2741 -0.8116 
740 -0.0991 -0.5997 -0.6228 
741 -0.6371 -0.1692 -0.2556 
742 0.0106 -0.5068 -0.6953 
743 0.265 -0.8696 0.4239 
744 -0.5987 -0.6194 -0.1348 
745 -0.5578 -0.2784 0.6177 
746 -0.0237 -0.4372 -0.785 
747 0.3851 0.3804 -0.8063 
748 0.1906 -0.931 0.1599 
749 0.5416 0.0774 -0.6936 
750 -0.0494 -0.4925 -0.7081 
751 -0.4704 0.8689 -0.3004 
752 -0.6758 0.4887 0.3767 
753 0.1358 -0.4603 -0.7037 
754 -0.4948 -0.6787 -0.1148 
755 -0.6559 -0.1261 0.2819 
756 -0.6729 0.504 0.2829 
757 0.1082 0.3162 -0.827 
758 0.449 0.1987 -0.807 
759 0.2812 -0.5158 0.7195 
760 -0.6534 -0.1088 0.4177 
761 -0.3879 0.5394 0.576 
762 -0.6567 0.5028 0.3388 
763 -0.7656 -0.0289 -0.4378 
764 -0.0291 0.8759 -0.076 
765 -0.0744 -0.5879 -0.6411 
766 -0.498 -0.3903 0.5904 
767 0.7061 -0.3054 -0.3859 
768 -0.2265 -0.4844 -0.7821 
769 0.5854 0.6081 -0.0549 
770 0.4493 0.1359 0.7339 
771 -0.2636 0.9151 -0.2053 
772 0.2068 0.0762 0.8246 
773 0.3183 -0.895 0.0739 
774 -0.7834 -0.2491 0.2179 
775 0.5496 0.6196 -0.3677 
776 -0.0848 0.4613 -0.7357 
777 -0.7356 -0.1052 -0.501 
778 0.0376 -0.4142 -0.7707 
779 0.697 -0.3152 -0.3887 
780 -0.0683 0.9285 0.0277 
781 0.4015 0.6764 -0.5626 
782 -0.6772 0.1658 0.1206 
783 -0.5147 0.4739 -0.453 
784 -0.0954 0.8838 0.0529 
785 0.5401 0.4096 0.6229 
786 -0.643 0.4518 0.2433 
787 0.5685 0.5001 -0.1307 
788 0.1995 -0.0413 0.8499 
789 -0.4307 -0.71 0.2079 
790 0.452 -0.3666 -0.6203 
791 0.0713 0.3444 0.5384 
792 0.8134 -0.3244 -0.025 
793 -0.2309 -0.5619 0.7085 
794 -0.0463 0.3678 0.5318 
795 -0.4384 0.5103 0.5902 
796 0.0662 -0.4069 -0.7704 
797 0.5455 0.5381 -0.3203 
798 -0.7199 0.013 -0.2705 
799 0.531 -0.0271 -0.7133 
800 -0.2538 -0.6437 -0.5421 
801 0.0255 -0.5033 -0.6985 
802 0.4204 0.2701 0.6944 
803 0.7808 -0.1646 -0.3985 
804 -0.33 0.9524 -0.323 
805 0.8769 0.2042 0.1205 
806 0.0941 -0.4752 -0.698 
807 -0.8132 0.4036 0.1687 
808 -0.4236 0.2835 0.6608 
809 -0.4638 0.8777 -0.2871 
810 -0.3769 0.4691 0.691 
811 -0.908 -0.0534 0.1023 
812 0.2927 -0.8996 0.2684 
813 -0.416 0.5127 0.6076 
814 -0.3158 -0.7491 0.4372 
815 -0.4074 0.5864 -0.5488 
816 0.1211 0.3966 0.498 
817 0.0093 0.6226 -0.6141 
818 0.708 0.0426 -0.4948 
819 0.0852 0.8926 -0.094 
820 0.8704 0.225 0.2508 
821 0.4927 0.358 0.5843 
822 0.4915 -0.781 -0.0443 
823 0.0294 -0.4926 -0.7439 
824 0.0218 -0.8248 -0.2688 
825 -0.5855 -0.281 -0.4655 
826 0.0024 0.7158 -0.7871 
827 0.6899 -0.3039 0.4906 
828 0.5054 -0.1269 0.7164 
829 0.1281 -0.9039 0.5604 
830 -0.5189 -0.3654 0.6161 
831 -0.6032 0.5916 0.213 
832 -0.1109 0.6796 -0.7554 
833 0.1703 -0.6782 0.4724 
834 0.1783 -0.879 0.5247 
835 -0.0711 0.8345 0.2382 
836 -0.6119 -0.6171 -0.1352 
837 0.0846 -0.3482 -0.7796 
838 0.6658 -0.2665 0.5419 
839 0.6276 -0.2477 0.5933 
840 -0.1749 0.7516 0.2144 
841 0.8232 -0.2924 0.1678 
842 -0.5226 -0.657 -0.1127 
843 -0.6506 0.2392 0.2865 
844 0.006 -0.3879 0.8343 
845 -0.068 0.6751 -0.7726 
846 -0.4525 -0.4009 0.6997 
847 -0.6994 -0.2344 0.3779 
848 0.0182 0.8764 0.1602 
849 -0.5347 -0.313 0.6208 
850 -0.0242 -0.9044 0.2054 
851 0.7228 0.143 -0.2074 
852 -0.6418 -0.311 -0.6138 
853 0.5675 -0.5076 0.5095 
854 0.8783 0.2155 0.2217 
855 -0.1442 -0.6029 -0.6105 
856 0.0568 0.3365 0.5458 
857 -0.1212 0.6502 0.3482 
858 0.1696 -0.8302 -0.2055 
859 -0.7246 -0.1199 -0.5177 
860 -0.2567 0.7457 0.2427 
861 0.7229 -0.5067 0.1009 
862 0.3474 -0.8549 0.228 
863 0.6032 -0.5347 -0.293 
864 -0.5158 -0.2858 0.67 
865 0.0357 -0.8486 -0.1651 
866 0.5326 -0.7701 0.0937 
867 -0.1275 0.5426 -0.7646 
868 -0.4058 0.4856 0.6579 
869 -0.5148 -0.2569 0.5845 
870 0.759 0.2428 0.3687 
871 -0.8565 0.0083 -0.1282 
872 -0.0858 0.2037 -0.7639 
873 0.8536 0.2095 -0.0153 
874 -0.1749 -0.5487 0.7888 
875 0.5185 0.5806 -0.2739 
876 -0.6745 -0.2959 -0.2749 
877 -0.6763 -0.403 0.2421 
878 0.6019 0.394 -0.0771 
879 -0.8018 0.0914 -0.3274 
880 0.4435 0.0815 -0.7498 
881 -0.7201 -0.1247 -0.5235 
882 0.6038 -0.7029 0.0455 
883 -0.6721 0.159 0.2019 
884 -0.4096 0.472 0.6661 
885 -0.0885 -0.5988 -0.6251 
886 -0.1427 0.4702 -0.7443 
887 0.6355 -0.2336 -0.4414 
888 -0.6261 -0.6127 -0.1464 
889 -0.1915 -0.8197 0.3068 
890 -0.6236 -0.6131 -0.1269 
891 -0.0236 -0.1331 0.8618 
892 -0.9402 -0.0091 -0.0391 
893 0.1039 0.6715 -0.8026 
894 -0.4094 0.354 0.6662 
895 0.0045 -0.3986 -0.7326 
896 0.021 -0.3719 0.8367 
897 -0.1487 0.84 -0.7072 
898 0.7935 -0.1583 0.3003 
899 -0.2628 -0.7572 -0.3612 
900 0.6752 0.3299 0.436 
901 -0.081 0.6579 -0.7706 
902 0.1578 0.6612 -0.3149 
903 -0.2351 -0.4878 -0.7473 
904 -0.4791 -0.4454 0.6493 
905 -0.1601 -0.1716 0.8395 
906 0.494 -0.3976 0.6523 
907 -0.0397 0.0712 0.7529 
908 0.2842 -0.7587 -0.2487 
909 -0.5906 0.0078 -0.5272 
910 -0.4303 -0.7223 -0.1406 
911 0.3334 0.7647 -0.3188 
912 -0.6285 -0.1002 0.4473 
913 -0.8834 -0.0636 -0.1964 
914 0.7218 -0.2802 -0.3915 
915 -0.3772 -0.7528 -0.1723 
916 -0.7946 0.0566 -0.3585 
917 0.481 0.6746 -0.3962 
918 -0.626 -0.2736 -0.4156 
919 -0.7398 -0.0978 -0.4936 
920 0.0111 -0.5032 -0.6987 
921 -0.1291 0.5809 0.4237 
922 0.5743 0.1729 -0.6128 
923 0.0657 -0.31 0.8416 
924 -0.2577 -0.7121 -0.4533 
925 -0.0266 0.8779 0.1802 
926 -0.1113 0.5537 0.4369 
927 0.0088 0.3759 0.5242 
928 -0.0741 0.2777 -0.7674 
929 0.1564 -0.8649 0.5524 
930 0.1485 -0.8144 0.5851 
931 0.6367 -0.5493 0.3584 
932 0.5092 -0.7965 0.0741 
933 -0.2626 -0.8127 0.3314 
934 -0.2245 0.788 0.1877 
935 -0.1809 0.3932 0.7939 
936 0.5626 -0.3195 -0.5626 
937 -0.5592 0.6238 0.1847 
938 0.064 -0.3529 -0.7859 
939 0.11 -0.4956 -0.685 
940 0.1492 0.6413 -0.7971 
941 0.3596 0.739 -0.2242 
942 -0.7976 0.0669 -0.3483 
943 0.5004 0.0735 -0.7802 
944 -0.8224 0.1511 -0.2561 
945 -0.3543 -0.5464 0.7267 
946 -0.178 0.7977 0.1923 
947 -0.5833 -0.622 -0.1324 
948 0.2124 0.5234 -0.8313 
949 -0.1703 0.1532 -0.741 
950 -0.4971 0.323 -0.5467 
951 -0.2687 -0.7656 -0.3353 
952 -0.1055 0.8447 -0.0923 
953 -0.6468 -0.5472 0.0371 
954 -0.3085 0.4039 -0.6638 
955 -0.9197 0.0413 -0.0284 
956 -0.3228 0.8148 -0.1867 
957 -0.2704 0.5706 -0.6781 
958 -0.8849 -0.0184 -0.0153 
959 -0.0196 0.585 -0.6555 
960 0.11 0.8974 -0.1659 
961 -0.1874 -0.4266 0.8169 
962 -0.3389 0.6638 -0.6066 
963 -0.0621 0.5632 -0.7889 
964 -0.2215 0.7519 -0.679 
965 -0.0047 0.3942 0.5129 
966 -0.0805 0.1526 -0.7627 
967 0.2031 -0.0668 0.8196 
968 -0.7546 -0.0624 -0.4632 
969 0.7466 -0.4663 0.0905 
970 -0.3003 0.3979 -0.6703 
971 0.7992 -0.1723 -0.201 
972 0.2265 -0.7834 0.4136 
973 0.4984 -0.3232 0.681 
974 0.1221 0.2706 0.7174 
975 -0.3338 0.9536 -0.3311 
976 0.4428 0.7087 -0.3806 
977 0.101 -0.6665 -0.3754 
978 0.1403 -0.469 -0.6886 
979 -0.0872 -0.0729 0.8153 
980 -0.018 -0.4398 -0.773 
981 0.4708 0.466 0.5714 
982 -0.5432 -0.5887 0.2477 
983 0.7105 -0.5247 0.0751 
984 0.1787 -0.9693 0.4966 
985 0.5816 -0.7195 -0.0262 
986 0.2646 -0.7539 -0.2665 
987 -0.4991 0.839 -0.2568 
988 -0.6399 -0.5822 -0.0211 
989 0.0198 0.8994 -0.0342 
990 0.4235 0.6686 -0.4528 
991 -0.1003 0.6647 -0.762 
992 -0.3534 0.5188 0.6268 
993 0.0494 -0.2537 0.847 
994 0.5319 0.5523 -0.3311 
995 0.028 -0.0223 0.8614 
996 -0.6412 -0.576 -0.0094 
997 0.5907 0.4635 -0.2153 
998 -0.0329 0.353 -0.5474 
999 0.4784 -0.4477 0.6383 
1000 0.4397 0.7782 0.0448 
1001 -0.0286 0.03 0.7817 
1002 -0.6782 -0.3958 0.2487 
1003 -0.1171 -0.4342 0.8236 
1004 -0.6913 0.2435 -0.0451 
1005 -0.8479 0.0779 0.0195 
1006 0.8708 0.2187 0.1368 
1007 0.4886 -0.3209 -0.5873 
1008 -0.1742 -0.6004 -0.6052 
1009 0.1996 -0.9153 0.4507 
1010 0.5392 0.6307 -0.3687 
1011 -0.2317 -0.8294 0.1281 
1012 0.5881 -0.3797 -0.5492 
1013 0.4889 0.5603 0.0265 
1014 0.7055 -0.533 0.0781 
1015 -0.429 0.9064 -0.3062 
1016 -0.3427 -0.7031 0.4958 
1017 -0.5617 0.3925 -0.4348 
1018 0.7278 -0.4874 0.0962 
1019 -0.074 -0.3276 0.8493 
1020 -0.5578 -0.2699 0.5961 
1021 0.3417 0.482 0.3343 
1022 -0.2346 0.0767 -0.7189 
1023 -0.5682 -0.2943 -0.4719 
1024 0.5209 0.4772 0.2012 
1025 -0.4584 -0.4639 0.6554 
1026 -0.6176 -0.0256 0.5397 
1027 0.5383 0.4068 0.6256 
1028 0.6087 0.4036 -0.1168 
1029 -0.0769 0.1678 -0.7645 
1030 -0.0462 -0.8931 0.2431 
1031 0.0932 -0.9708 0.568 
1032 0.6006 0.2776 0.6081 
1033 -0.8349 0.3618 0.0767 
1034 -0.052 -0.3057 0.8536 
1035 -0.6099 -0.2788 -0.4362 
1036 0.2141 -0.8271 0.5205 
1037 0.6851 0.0837 -0.5087 
1038 -0.0157 0.7192 -0.7814 
1039 -0.7984 0.4141 0.2181 
1040 0.1526 -0.942 0.2363 
1041 -0.3542 -0.7631 0.2175 
1042 -0.1247 0.8725 0.0769 
1043 0.126 -1.0 0.5611 
1044 -0.0772 0.5804 -0.7822 
1045 -0.1603 0.7808 -0.7105 
1046 0.5198 -0.1091 -0.5276 
1047 0.0932 0.9052 -0.0433 
1048 -0.0954 0.9474 -0.2008 
1049 -0.0541 0.8566 0.2179 
1050 -0.0297 -0.9068 0.2804 
1051 0.3643 -0.9106 0.1544 
1052 0.4738 0.3779 0.6127 
1053 0.5746 0.488 -0.3214 
1054 -0.6226 0.6261 -0.0002 
1055 -0.5426 0.6583 0.1097 
1056 0.3933 0.121 -0.7437 
1057 -0.0625 -0.0569 0.8124 
1058 -0.9219 -0.0013 0.0294 
1059 0.0028 -0.3827 0.8356 
1060 -0.7513 -0.0719 -0.4708 
1061 -0.2879 -0.4488 0.7824 
1062 0.2946 0.7791 -0.2906 
1063 0.1961 0.5076 0.4464 
1064 -0.2271 -0.6361 -0.3803 
1065 0.4045 0.6452 -0.4697 
1066 -0.0428 -0.4463 0.8223 
1067 0.3626 -0.9156 0.2082 
1068 0.2442 -0.9152 0.1023 
1069 0.3506 -0.4105 -0.646 
1070 -0.0508 0.6104 -0.7876 
1071 0.6039 -0.6296 -0.1632 
1072 -0.6025 -0.3829 0.4445 
1073 -0.6953 0.5338 0.1107 
1074 -0.0284 0.5033 -0.8026 
1075 -0.6008 -0.0689 -0.4641 
1076 -0.0599 0.6583 -0.778 
1077 -0.0627 0.3637 0.5412 
1078 -0.2995 0.452 0.5 
1079 0.532 -0.7842 0.0904 
1080 0.6106 -0.5827 -0.2292 
1081 0.1722 -0.4069 -0.7409 
1082 0.7273 -0.4877 0.0405 
1083 -0.2615 -0.4817 -0.7757 
1084 -0.44 0.8986 -0.3013 
1085 -0.0386 -0.4456 -0.7803 
1086 0.262 -0.877 -0.0085 
1087 -0.6479 0.0285 0.399 
1088 -0.4899 0.433 -0.5076 
1089 -0.0097 0.5433 -0.6908 
1090 -0.1239 -0.4693 -0.7884 
1091 0.7911 -0.2052 0.2743 
1092 0.0598 0.3354 0.546 
1093 -0.1814 -0.6723 0.2006 
1094 -0.552 -0.6354 -0.1189 
1095 0.549 0.1886 0.6657 
1096 -0.231 -0.4961 0.7786 
1097 0.6437 -0.2947 -0.4923 
1098 -0.5649 0.5647 0.3206 